2
Properties=species:S:1:pos:R:3:forces:R:3 energy=-8.759742673137072 pbc="F F F"
H        0.00000000       0.00000000       0.00000000       1.53208638       0.13098867       4.53832253
H        0.76553186       0.00000000       0.00000000      -1.16199225      -1.58021080       0.33524214
2
Properties=species:S:1:pos:R:3:forces:R:3 energy=-3.7192079015352757 pbc="F F F"
H        0.00000000       0.00000000       0.00000000       2.73044949       0.06874556       0.21296946
H        1.00466482       0.00000000       0.00000000       3.11014793       0.53780466      -3.79237256
2
Properties=species:S:1:pos:R:3:forces:R:3 energy=7.189273706327455 pbc="F F F"
H        0.00000000       0.00000000       0.00000000       1.53916231       4.99280004       4.67277815
H        0.90433764       0.00000000       0.00000000       4.82751479      -3.72742755       1.53408770
2
Properties=species:S:1:pos:R:3:forces:R:3 energy=8.17870662429138 pbc="F F F"
H        0.00000000       0.00000000       0.00000000       3.66308968       3.87160588       4.82455171
H        0.95810929       0.00000000       0.00000000      -2.04872371       0.41517506      -2.14607990
2
Properties=species:S:1:pos:R:3:forces:R:3 energy=-5.993965811098398 pbc="F F F"
H        0.00000000       0.00000000       0.00000000       3.96966993       2.27459901       2.29572060
H        0.89272778       0.00000000       0.00000000       4.13658605       2.63264531       0.03607745
2
Properties=species:S:1:pos:R:3:forces:R:3 energy=5.5484447205560645 pbc="F F F"
H        0.00000000       0.00000000       0.00000000      -1.03319915       3.52230195       3.02470110
H        0.87884678       0.00000000       0.00000000       3.71634012       4.60398225       4.93817840
2
Properties=species:S:1:pos:R:3:forces:R:3 energy=-5.814588656353306 pbc="F F F"
H        0.00000000       0.00000000       0.00000000       4.38672742      -3.38098568       3.96265227
H        1.10390324       0.00000000       0.00000000      -2.36787831       1.26632275      -2.54980052
2
Properties=species:S:1:pos:R:3:forces:R:3 energy=4.822978863120337 pbc="F F F"
H        0.00000000       0.00000000       0.00000000      -1.16551747       4.41462459      -2.12527669
H        0.92116485       0.00000000       0.00000000       1.53299624      -4.04118132      -3.07972468
2
Properties=species:S:1:pos:R:3:forces:R:3 energy=2.153278030275324 pbc="F F F"
H        0.00000000       0.00000000       0.00000000      -1.50090037       2.51211053       4.84955928
H        1.15947263       0.00000000       0.00000000      -1.38685321       4.87367691       1.93581327
2
Properties=species:S:1:pos:R:3:forces:R:3 energy=-9.691070544370257 pbc="F F F"
H        0.00000000       0.00000000       0.00000000      -2.43225987       1.17215292       0.49919348
H        1.05785635       0.00000000       0.00000000       0.84314954      -0.43226929       4.92230042
