5
Properties=species:S:1:pos:R:3:forces:R:3 energy=-1086.4743222982022 pbc="F F F"
C        0.00000000       0.00000000       0.00000000      -2.76556618       1.23950213      -1.26445007
H       -0.00562602      -2.66436171       0.00208877      -0.42299962       0.66980507      -0.53865150
H       -0.37115592       0.83200512      -1.03098568       1.89173165      -1.77456488       1.86931676
H       -1.46906270      -1.09096566      -0.71382335       2.52985968       0.21601801       1.31605265
H        1.84659701       0.20393263       1.15105618      -1.23318802      -0.35095111      -1.38226476
5
Properties=species:S:1:pos:R:3:forces:R:3 energy=-1089.2434963475403 pbc="F F F"
C        0.00000000       0.00000000       0.00000000      -2.13673629       0.51997037       1.33909592
H        0.36991142      -1.88431623      -1.32369009      -0.59881482       0.03511100       1.52269847
H       -1.33761430       0.38261210      -1.40882395       2.23147634      -0.88420791       2.05284373
H       -0.74617406       0.49376969       1.13293981       1.21899449      -1.86318622      -2.72217109
H        0.46994326      -1.44374034       0.29605200      -0.71495263       2.19231122      -2.19240790
5
Properties=species:S:1:pos:R:3:forces:R:3 energy=-1087.810613095487 pbc="F F F"
C        0.00000000       0.00000000       0.00000000       5.35226373      -3.18126799      -7.66397035
H        2.21123092       0.16974865       1.46863934      -1.18289053      -0.34583718      -0.73314319
H        1.27254149       0.11719634      -1.25256870      -2.91287606       0.24763797       2.85535172
H        0.34017327       1.55326207       1.04758417       0.03598980      -0.92026662      -1.38413498
H       -0.09751791       0.53068968       0.83777793      -1.29249362       4.19954768       6.92633904
5
Properties=species:S:1:pos:R:3:forces:R:3 energy=-1082.019179689207 pbc="F F F"
C        0.00000000       0.00000000       0.00000000       1.64140122       1.05204600       1.56868268
H        2.44442453       1.61671103      -0.44999927      -1.20199126      -0.51960013       1.30503341
H        1.32137334       1.56956587       1.41737538      -0.27377890      -0.41822457      -1.54717076
H       -1.04834866       0.75225945       2.19483077       1.07786606      -0.40498852      -1.22572719
H        2.64334020      -0.75004886       0.28502328      -1.24353671       0.29085720      -0.10084077
5
Properties=species:S:1:pos:R:3:forces:R:3 energy=-1085.8092969382828 pbc="F F F"
C        0.00000000       0.00000000       0.00000000       1.28997805      -2.18100299       1.23314688
H       -1.18449028       1.64822319      -1.23940548       0.37689869      -1.35517355       0.60281340
H        2.09505475      -1.29680430      -0.07304956      -1.68871725       0.08067097      -1.40384661
H       -0.19248905      -1.17678946       0.66673205      -0.62256206       2.55697352      -1.91886297
H        1.00664908      -2.10609239      -1.59925941       0.64440153       0.89864672       1.48654926
5
Properties=species:S:1:pos:R:3:forces:R:3 energy=-1085.2057953236463 pbc="F F F"
C        0.00000000       0.00000000       0.00000000      -0.83215385      -1.04238174      -2.86824941
H        0.99111193      -1.20822331      -1.38381217      -1.37932958       1.21395564       1.70132440
H       -2.35479060      -0.12326122      -0.08590640       1.83465262      -0.26733366      -0.79781058
H       -1.08070962      -0.22479720      -1.16789043       0.64826847       0.31658779       2.49985747
H        1.14828837       0.21215341       2.74500207      -0.27147262      -0.22074062      -0.53509360
5
Properties=species:S:1:pos:R:3:forces:R:3 energy=-1084.8478358287016 pbc="F F F"
C        0.00000000       0.00000000       0.00000000       0.97438528      -1.50430839      -1.12949949
H        1.85465783      -1.47979303       0.31578473      -1.23560125       1.41031396      -0.14061164
H       -0.37309377       1.80964800       0.27394504       1.08640419      -1.08851815      -2.47879189
H        0.29736923      -1.46310355      -1.52411005      -0.44950719       1.97428981       1.58000788
H       -0.00607069       2.23168910      -1.40568615      -0.37572987      -0.79183482       2.16902319
5
Properties=species:S:1:pos:R:3:forces:R:3 energy=-1087.250585246086 pbc="F F F"
C        0.00000000       0.00000000       0.00000000     -12.57719385      -6.29178689      -5.23694507
H       -2.68954102      -0.90357568       0.61521329       1.48052054       1.89479023       3.74918893
H       -0.04616601      -1.68225397       1.73433059       0.16944143       1.46519264      -1.55853710
H       -2.21796445      -0.37167389       1.72420946      -1.62864648      -1.80224231      -3.71269519
H        0.75456495       0.27263915       0.39237415      12.55577809       4.73400159       6.75910464
5
Properties=species:S:1:pos:R:3:forces:R:3 energy=-1084.1847359835235 pbc="F F F"
C        0.00000000       0.00000000       0.00000000      -2.92613473       0.25771670      -1.36664581
H       -0.80363191      -2.25632073      -0.63385560      -1.25580242       1.36511395       2.14898143
H       -1.77437834      -1.85543255       0.60511678       1.82456566       0.21836183      -2.10578534
H       -1.07593878       1.08619370      -1.63356763       1.20983982      -1.31616167       1.79259244
H       -2.57523911       0.45447810       1.18940364       1.14744889      -0.52500562      -0.46898177
5
Properties=species:S:1:pos:R:3:forces:R:3 energy=-1086.334360508871 pbc="F F F"
C        0.00000000       0.00000000       0.00000000      -2.23582048      -2.08769350      -2.07577489
H        2.40245661      -0.86028127      -1.21451478      -1.04497855       0.27078871       0.54793832
H       -1.21569121      -0.70444247      -1.76740487       1.66203073       1.27212071       1.32885572
H        0.77108899       0.70392245      -0.24960423       2.11003640       1.76395188      -1.02063945
H       -0.09325134       1.29337265      -2.02505029      -0.49146813      -1.21930148       1.21977148
5
Properties=species:S:1:pos:R:3:forces:R:3 energy=-1085.3464744845564 pbc="F F F"
C        0.00000000       0.00000000       0.00000000       0.34734179       2.73240511      -2.42664836
H        0.37885889       0.10088518      -2.39674890      -0.23399672      -0.04166629       1.42157797
H       -0.09481786       1.56488819      -0.75201174      -1.63129729      -0.83815532      -0.71130269
H       -0.77351831       1.56488689      -1.82477144       1.97601656      -0.97543275       2.49720049
H        1.40024918       2.02082168       1.31082007      -0.45810908      -0.87716103      -0.78073125
5
Properties=species:S:1:pos:R:3:forces:R:3 energy=-1089.266492268637 pbc="F F F"
C        0.00000000       0.00000000       0.00000000      -0.79999653       5.37879804      -1.17402742
H       -0.82533466      -2.54535035      -0.14980825      -9.59032089       2.26534139      -3.61290189
H       -0.57848185       1.17596357      -0.80917702       1.16499924      -3.00506044       1.64617062
H       -0.28093590      -2.67968144       0.05478497       9.53817427      -2.42602872       3.60724649
H        0.44405804       2.09230489       0.66423413      -0.31255064      -2.21317985      -0.46665492
5
Properties=species:S:1:pos:R:3:forces:R:3 energy=-1087.8058537718152 pbc="F F F"
C        0.00000000       0.00000000       0.00000000       1.87056117      -3.76904968      -1.62752445
H       -0.07818996       1.05653765      -0.03978600      -0.32455101       2.78820733      -0.52419418
H        0.09100990      -0.07466626      -2.72534333      -0.02206522      -1.73152357       2.34195207
H        2.69022965       0.68387006      -0.46855731      -1.35144596      -0.36219198       0.28374913
H        0.09213845      -1.15199779      -1.55037010      -0.17253498       3.07448694      -0.47382367
5
Properties=species:S:1:pos:R:3:forces:R:3 energy=-1083.772470188669 pbc="F F F"
C        0.00000000       0.00000000       0.00000000      -1.76970858      -1.94439866       0.95446848
H        1.21535266       2.63358853      -0.08995720      -0.48092198      -0.63920996      -0.02270337
H       -0.77029097      -1.50122024      -0.14973432      -0.00132412       2.11060410      -1.32517236
H       -1.75067463      -0.21193869       1.87990743       1.18767433       0.17122012      -1.28066757
H       -1.60635637      -1.56995287      -1.62556532       1.06434051       0.30179828       1.67409127
5
Properties=species:S:1:pos:R:3:forces:R:3 energy=-1086.7363853890743 pbc="F F F"
C        0.00000000       0.00000000       0.00000000       2.06541437       1.81540430      -2.01865164
H       -0.42270286       0.26500221       1.75866363      -0.95551389       2.41507376       2.91811495
H        0.86645894       1.00128456       1.50909956       0.83184429      -0.09421298      -1.15335677
H        2.45992895       0.19176096       1.26249781      -1.85971831       0.23051081      -0.22283350
H       -0.17323949       0.02528554       1.10112565      -0.08223471      -4.36676407       0.47671668
5
Properties=species:S:1:pos:R:3:forces:R:3 energy=-1083.8771873693415 pbc="F F F"
C        0.00000000       0.00000000       0.00000000       1.04120674      -0.00007610       3.31324997
H        2.33505549      -0.89404930       1.37100916      -1.37581848       0.24288143      -0.45968414
H       -0.29162150       1.03196058       2.37507422       0.10282720      -0.80453659      -1.43395527
H        0.37364523       2.58326128      -1.12157214      -0.04762251      -1.00413913       0.56041229
H        0.37378506      -0.71964591       1.44039901       0.27953200       1.56596245      -1.98004548
5
Properties=species:S:1:pos:R:3:forces:R:3 energy=-1089.0072440962745 pbc="F F F"
C        0.00000000       0.00000000       0.00000000       3.04589317       1.58211310      -3.34744411
H       -1.60687617      -1.47883550       1.19473723      -0.55570203       0.73058597      -1.61702664
H       -1.42770551      -0.74388731      -0.41324543       0.90649270       0.25585676       2.87061688
H        0.12303730       0.85952609      -0.98333108      -1.05762993      -1.50475731       1.13925889
H        1.22368858       0.96791274       0.08269365      -2.33927092      -1.06349976       0.95439598
5
Properties=species:S:1:pos:R:3:forces:R:3 energy=-1087.2836214822107 pbc="F F F"
C        0.00000000       0.00000000       0.00000000       9.48340769       3.81572603      -7.29241493
H        1.69960382       1.80919178       0.57506446      -0.43997765      -1.46260405      -0.10307609
H        1.56422460       0.18321601      -0.00974064      -3.74906089       0.87191701       0.69908378
H       -0.70312485      -0.27432631       0.56341542      -6.22345208      -2.51785365       6.95059946
H       -2.06206088       2.02524062       0.29932988       0.92905929      -0.70686599      -0.25412795
5
Properties=species:S:1:pos:R:3:forces:R:3 energy=-1089.7601617285318 pbc="F F F"
C        0.00000000       0.00000000       0.00000000       2.30450496      -4.47591362      -0.85311298
H       -0.57585008       1.21472976      -0.94194070      -1.73473179       3.72828020      -0.48739345
H       -0.75076538       2.19768559      -0.76507674       0.26588201      -2.79365344      -1.50223814
H        0.15031910       0.99687199       0.00723610       1.45291973       4.57255372       2.75897850
H        1.98450111       0.58276168      -0.23961517      -2.28849315      -1.03095318       0.08375167
5
Properties=species:S:1:pos:R:3:forces:R:3 energy=-1082.5813670647815 pbc="F F F"
C        0.00000000       0.00000000       0.00000000      -0.18578183       0.04303926       1.44443869
H       -1.69809505       0.24463614      -2.31235720      -0.57159763      -1.14378763       2.07749651
H        2.19163141       0.73491284       1.02858465      -1.50337046      -0.29746083      -0.63229471
H       -2.22178253      -0.65758248      -0.73536651       1.13740461       1.52501144      -1.64236641
H       -1.83811172       0.11377439       1.85953119       1.12342294      -0.12682281      -1.24724064
5
Properties=species:S:1:pos:R:3:forces:R:3 energy=-1087.7050262325267 pbc="F F F"
C        0.00000000       0.00000000       0.00000000      -0.95026216      -4.99134547       0.85029299
H       -1.08280162      -0.14235597       1.25556841       2.22580089      -0.21704594      -2.88659938
H       -0.59230663      -2.38220821       0.80049521       0.68952904       1.49686916      -0.46318341
H        1.98248104      -1.67458615       0.29935156      -1.13623836       0.81865915       0.21338006
H       -0.03406685      -1.12171910      -0.89125258      -0.82866795       2.89280397       2.28615345
5
Properties=species:S:1:pos:R:3:forces:R:3 energy=-1082.8353706518878 pbc="F F F"
C        0.00000000       0.00000000       0.00000000      -1.70806481      -0.05840983      -0.07246606
H        1.80870940       1.42036724       0.87783065       0.54814504      -2.84683931       0.96796729
H       -2.34535427       0.76857392      -0.67870529       1.48788521      -0.56714344       0.58377335
H        2.34124735      -0.01986150       1.51037143      -1.22567885       2.63319751      -1.23580180
H       -2.28780839      -1.69371758       0.47373069       0.89772112       0.83920228      -0.24354169
5
Properties=species:S:1:pos:R:3:forces:R:3 energy=-1084.830960100106 pbc="F F F"
C        0.00000000       0.00000000       0.00000000      -3.14404817      -2.35655337      -0.42899030
H       -0.91345822      -1.60784268       0.18668462       0.38570216       1.61317306       1.27893619
H       -2.07374161      -0.29551739      -0.15716069       2.64830480       0.05989439       0.03826266
H       -0.73303908      -1.76129970       1.91912640       0.35882229       0.47054757      -2.12786752
H        0.55620608      -0.84492634      -2.63946908      -0.24905310       0.21291675       1.23947797
5
Properties=species:S:1:pos:R:3:forces:R:3 energy=-1087.6441481231168 pbc="F F F"
C        0.00000000       0.00000000       0.00000000     -10.22928556       1.80582283     -14.68890095
H        0.50414580      -0.12649219       0.69598262       9.83223764      -2.64086660      14.01576014
H        1.67610342      -1.52758883       1.44504251      -0.08720774      -1.56588017       1.49776391
H        0.90395070      -2.70387253      -0.43812432      -0.58578087       1.10200205       0.01712561
H        1.83066426      -0.98654032       1.00643552       1.07002111       1.29876866      -0.84192508
5
Properties=species:S:1:pos:R:3:forces:R:3 energy=-1082.8878541721683 pbc="F F F"
C        0.00000000       0.00000000       0.00000000       0.80342279      -0.73203094       1.35889856
H       -0.75961889       1.78363452      -1.17222178       0.10812985      -2.13878700      -1.01271274
H        1.84011859       0.99035175       1.84993347      -0.83076288      -0.49547340      -0.93755627
H        0.78995667      -1.90826940       0.76133540      -0.57282250       1.90822991      -0.90217788
H       -1.09640152       0.32224304      -2.45219076       0.49201269       1.45803572       1.49361517
5
Properties=species:S:1:pos:R:3:forces:R:3 energy=-1075.4346295002138 pbc="F F F"
C        0.00000000       0.00000000       0.00000000      -1.48693544      81.23990432       0.24790691
H        2.00241923      -1.21935968      -1.12970711       0.06048317       3.59197053      -0.16544851
H        2.01953759       0.20537303      -1.32715496      -0.84801911      -3.44477584       0.64633603
H        0.34819810       1.49422545      -2.45710272      -0.05834298      -0.70121779       0.73417472
H        0.02215243      -0.62595504      -0.00136661       2.33347771     -80.68545185      -1.46271461
5
Properties=species:S:1:pos:R:3:forces:R:3 energy=-1087.7843708316914 pbc="F F F"
C        0.00000000       0.00000000       0.00000000      -1.42128332       2.96680292      -2.85735924
H        0.89389961       1.06279086      -1.24844854      -1.54776983      -1.28967261       2.21390387
H        0.91224460       0.42079279       1.59341896      -1.47792578      -0.68527386      -3.16945376
H       -0.04487830      -0.53068785      -2.18613568       0.64744315       0.00900915       2.10065136
H       -1.37861687       0.58217573      -0.40242563       3.79957589      -1.00094325       1.71218012
5
Properties=species:S:1:pos:R:3:forces:R:3 energy=-1086.461522417935 pbc="F F F"
C        0.00000000       0.00000000       0.00000000      -4.88496963      -0.41801528      -0.60486103
H        1.22492352       0.80254458       1.60229190      -0.81579700      -1.63755742      -1.60431150
H       -0.43707023      -0.80533903      -1.36897353       1.98146936       2.05008133       2.76719369
H       -1.04525963       1.98535517       0.63519358       0.66047967      -1.76080896      -1.06861060
H       -1.48101226      -0.89512240       0.25714974       3.05882069       1.76628695       0.51052104
5
Properties=species:S:1:pos:R:3:forces:R:3 energy=-1087.5360327125995 pbc="F F F"
C        0.00000000       0.00000000       0.00000000      -1.39191617       1.05943793      -1.09501996
H       -1.22017626      -0.42724205      -1.26461264       2.22098881      -0.25471982       2.06254553
H       -1.37819175       0.06798902       1.55954787      -3.83060089      -1.91439336      -5.68003839
H       -1.03172638       0.24197854       2.07050508       3.89446455       1.77261393       5.49379376
H        1.95416580      -0.10293431       1.30390600      -0.89286122      -0.66289600      -0.78131026
5
Properties=species:S:1:pos:R:3:forces:R:3 energy=-1089.7494297173662 pbc="F F F"
C        0.00000000       0.00000000       0.00000000      -5.11888665       1.64706485      -6.52123533
H       -2.04474807      -1.66437743       1.06812421       1.57769697       0.77618862       0.08583323
H        0.85442614      -0.22935698      -1.40143676      -2.22950019       0.05125445       3.40371993
H        0.60248046      -0.28337280       0.67387746       8.03926005      -2.41820845       5.47080655
H       -0.65329450      -0.63008796       1.14841678      -2.26815417      -0.05621154      -2.43922723
5
Properties=species:S:1:pos:R:3:forces:R:3 energy=-1085.2194407278284 pbc="F F F"
C        0.00000000       0.00000000       0.00000000       1.47253983       0.07820271      -4.88663211
H       -0.06618965      -1.12787729      -1.88975002       0.65015206       1.65404180       1.77769134
H        1.09250216       2.03337478      -1.60090029      -1.54139452      -1.36880760       0.24428782
H       -0.75039233       1.35970515      -1.99787322       1.29638165      -0.17560025       1.15087205
H        1.24626366      -0.21172588      -1.47628391      -1.87783894      -0.18786082       1.71368627
5
Properties=species:S:1:pos:R:3:forces:R:3 energy=-1088.565748346373 pbc="F F F"
C        0.00000000       0.00000000       0.00000000      -2.29363382      -0.96454001       2.34645973
H       -0.09444877       0.82060732       2.68018278       0.73854766      -0.14694890      -0.65223363
H       -1.41871506      -0.78462442       0.68424857       2.97541406       1.43998708      -1.09439363
H        1.34638173       0.02769895       1.74253774      -1.66597686       0.63802211       0.30810828
H        0.68807271      -0.24584906       1.18788276       0.24569421      -0.96658764      -0.90778083
5
Properties=species:S:1:pos:R:3:forces:R:3 energy=-1089.604268143489 pbc="F F F"
C        0.00000000       0.00000000       0.00000000       2.89051363       4.07143726       6.03843182
H       -0.65039686      -0.48437106      -0.53906116      -3.71775770      -4.68459627      -1.89034017
H        0.92027958       0.35688116       0.70108411      -2.03760017      -0.42294049      -2.73611984
H       -1.94547695       0.73457788       1.00934920       2.03206406      -0.36129261      -1.08303398
H       -0.83345310      -0.44492040      -1.84211522       0.83273029       1.39740033      -0.32893680
5
Properties=species:S:1:pos:R:3:forces:R:3 energy=-1086.4654876790141 pbc="F F F"
C        0.00000000       0.00000000       0.00000000       0.95313459       0.91618577      -0.32855628
H       -0.81134542       1.40028689       2.33736887      -0.22931679      -0.06353147      -2.86525458
H       -0.85530114       1.37116836       1.42849314       0.16161499      -0.01138176       2.78873029
H       -0.57980936      -0.61074868      -2.47979039       0.45285786       0.55203666       1.41564746
H        1.56846931       1.54525307       0.77547168      -1.33831841      -1.39332102      -1.01034218
5
Properties=species:S:1:pos:R:3:forces:R:3 energy=-1086.0483259521216 pbc="F F F"
C        0.00000000       0.00000000       0.00000000       2.18622491      -2.55836603      -1.59377922
H        0.26578077       0.85552913      -0.79162902      -0.32769599       1.56912953      -0.56800734
H        0.95027191      -0.63678259      -1.94154262      -1.19122348       0.32607876       1.69855378
H        0.52126222       1.60456325      -2.08696795       0.16620184      -0.78135757       1.20527971
H        1.22829390      -1.61885747       1.25451234      -0.83333090       1.44457856      -0.74199911
5
Properties=species:S:1:pos:R:3:forces:R:3 energy=-1085.036957436161 pbc="F F F"
C        0.00000000       0.00000000       0.00000000       3.02776432      -0.62530748       0.16414496
H       -0.87699428       2.12688251      -0.21734686       0.45891178       1.00911576       3.43896874
H       -0.67237544       2.64324210       1.16200811      -0.42547045      -1.20255588      -3.57078258
H        1.67917295       1.44581896       1.21675454      -1.24651456      -1.15186553      -0.77781253
H        1.34798504      -1.43086821      -0.65833163      -1.81470239       1.97069078       0.74557088
5
Properties=species:S:1:pos:R:3:forces:R:3 energy=-1086.190984866166 pbc="F F F"
C        0.00000000       0.00000000       0.00000000       4.42248453      -0.76110241      -0.27374702
H        1.37123947      -1.24045841       0.35441254      -0.92705434       2.83726863       0.09847124
H        1.49738796      -0.38381763      -1.79126916      -1.42857035       0.33566487       1.50872658
H        1.52165712       0.00800195       0.79249967      -1.78264895      -1.21744257      -0.81461686
H        1.28955973       2.40597737       1.16797767      -0.28422375      -1.19454792      -0.51870384
5
Properties=species:S:1:pos:R:3:forces:R:3 energy=-1087.6600327890683 pbc="F F F"
C        0.00000000       0.00000000       0.00000000       0.67333262      -2.01317159      -0.14875433
H       -2.61632448      -1.22261777       0.49287364       0.65842999       0.06463191       0.20514121
H       -1.25387409       0.45146525       0.65537903       0.17644255       0.61513619       0.60752110
H       -0.44536772      -1.14102293      -1.14714645      -0.40294244       2.85879288       2.06876041
H       -0.62117739       0.90528366       1.28914266      -1.10508634      -1.52544853      -2.73280723
5
Properties=species:S:1:pos:R:3:forces:R:3 energy=-1085.2100445759797 pbc="F F F"
C        0.00000000       0.00000000       0.00000000      -1.96173922       0.31638981      -0.72962901
H       -1.41007880       1.39862504       0.31278058       0.60907816      -0.93805147      -1.18057551
H       -2.41045768       1.09702884      -0.76370524       1.88804880      -1.78572759       0.90166571
H        2.35559337      -1.00807557      -0.85813221      -1.07959796       0.70270029       0.38252530
H       -2.01651874      -0.30564963      -1.00098695       0.54414080       1.70463239       0.62584536
5
Properties=species:S:1:pos:R:3:forces:R:3 energy=-1086.701573090543 pbc="F F F"
C        0.00000000       0.00000000       0.00000000       0.67190977       0.03541233      -2.00107557
H       -1.72447828      -0.75320402      -2.06723963       0.79314608       0.36448643       0.69944784
H       -1.17618915       0.01392103       0.11328281       0.87905594      -0.59344481      -0.50863437
H        0.92255658      -1.05138808      -1.35258078      -2.05984125       1.62529891       2.07310609
H        0.51869250       2.65270283       0.27336622      -0.28431169      -1.43155746      -0.26268407
5
Properties=species:S:1:pos:R:3:forces:R:3 energy=-1082.413109045472 pbc="F F F"
C        0.00000000       0.00000000       0.00000000      -1.23634533      -1.07095956       0.40761568
H        1.63869500      -0.27616494       2.38569477      -0.29272897      -0.00433951      -1.02151260
H        2.37276787       0.02768844      -0.21524415      -1.29479322       0.28168093       0.89186981
H       -1.90234272       0.65105074       0.17610428       2.59019579      -0.42658220       0.11620363
H       -0.27269736      -2.52856211       1.24992458       0.23381623       1.22005482      -0.39410607
5
Properties=species:S:1:pos:R:3:forces:R:3 energy=-1088.805158730034 pbc="F F F"
C        0.00000000       0.00000000       0.00000000      -0.77047717       1.84425621      -1.83682726
H       -0.13705133       0.20984651      -1.39343585       0.44130794       0.22045780       3.37010943
H       -2.35322363       0.26636078      -0.90782951       0.79710199      -3.19155806       1.05362055
H        0.18791482       1.68068344       0.97625502      -0.49490416      -2.39205055      -1.90775683
H       -2.15689300      -1.17174751      -0.47672132       0.02718583       3.51867195      -0.67928370
5
Properties=species:S:1:pos:R:3:forces:R:3 energy=-1088.9972702025714 pbc="F F F"
C        0.00000000       0.00000000       0.00000000      -0.97868160      -1.36546619       3.29741094
H        1.73670846      -1.13128879      -1.50622176      -0.81632819      -1.90674381       3.95695319
H        2.00504082      -0.59235931       1.32047256      -1.69961565       0.44160979      -0.98032299
H        1.86710319      -0.84407370      -2.10118455       0.85112449       1.85829546      -4.00945719
H       -1.16556862      -0.49233267       1.08295691       2.64365316       0.97231606      -2.26455103
5
Properties=species:S:1:pos:R:3:forces:R:3 energy=-1087.4588899050095 pbc="F F F"
C        0.00000000       0.00000000       0.00000000       2.43949925      -0.03449856       0.60642221
H        0.26789983       1.50805780       1.30883806      -0.01382277      -2.30037834      -0.76262810
H        1.58136896      -0.90641085       0.71071543      -2.02092810       2.04153138      -0.42784153
H        1.10452655       0.28732167       1.01342447      -0.69497978      -0.63863094      -0.48277009
H       -0.93531312      -1.98706349      -0.87300736       0.28995577       0.93192967       1.06669359
5
Properties=species:S:1:pos:R:3:forces:R:3 energy=-1085.6165787006512 pbc="F F F"
C        0.00000000       0.00000000       0.00000000      -2.78879303      -0.57962616       1.03303320
H       -1.32431145       1.22622253       0.15954727       2.13685970      -1.77815106       0.10451385
H       -0.95343849      -1.61678848       1.33871527       0.92418293       1.63889028      -1.17277478
H        1.47335328      -1.07413595      -0.00980434       0.66228973       2.04439097      -1.82198376
H        2.37752545      -0.25583331      -1.21941723      -0.93456762      -1.32516310       1.85737964
5
Properties=species:S:1:pos:R:3:forces:R:3 energy=-1087.1414322930095 pbc="F F F"
C        0.00000000       0.00000000       0.00000000      -2.77148178       3.35973708      -1.27313578
H        1.15479909       1.44206268       2.04024265      -1.94738269       0.58398881      -2.50725093
H       -1.21595528       0.62943199      -0.34542948       2.51958195      -1.76218193       1.22474502
H        0.27465092       1.85461800       0.80419795       1.64153337      -1.47399816       1.61429149
H       -0.64082679       1.87115663      -1.83070453       0.55782936      -0.70785793       0.94140316
5
Properties=species:S:1:pos:R:3:forces:R:3 energy=-1086.7101576667212 pbc="F F F"
C        0.00000000       0.00000000       0.00000000      -2.13311926       0.95556840      -2.56206482
H       -0.19520495       0.31368857      -2.33786242       0.23334828      -0.75318187       1.91802685
H       -2.57670505       0.02242147      -0.21839519       1.80156559      -0.03268953       0.19227181
H       -0.28158345       2.21884235      -0.91119405       0.20618611      -2.43111077       1.16180953
H       -0.21129545       1.23368324      -0.74073767      -0.10793033       2.26167293      -0.71001405
5
Properties=species:S:1:pos:R:3:forces:R:3 energy=-1082.5622372325731 pbc="F F F"
C        0.00000000       0.00000000       0.00000000       0.24009075      -1.72319833      -0.33045170
H       -1.43685999      -2.02743809       1.24625354       0.73015506       1.04946307      -0.70341557
H        2.04832520      -1.64628518      -1.05567853      -1.04605019       0.79237321       0.45650420
H       -0.08868862      -0.45016114      -2.82466071      -0.70711951       3.12510067       0.59074567
H       -0.50061197       1.15198077      -2.69715169       0.78286681      -3.24375353      -0.01345562
5
Properties=species:S:1:pos:R:3:forces:R:3 energy=-1084.37471118872 pbc="F F F"
C        0.00000000       0.00000000       0.00000000      -0.94212667       2.10524438      -0.13441013
H       -1.01630674       1.40696672      -0.23757664       2.21026936      -2.49921469       0.68310899
H       -1.17280725      -1.20177432       2.01818614       2.22908367      -0.34468430      -0.38104949
H        0.74829648      -1.82816168       2.12427590      -1.93157194       0.88976561      -0.18606773
H        2.53417251       0.46959317       0.13407111      -1.56555158      -0.15116036       0.01858600
5
Properties=species:S:1:pos:R:3:forces:R:3 energy=-1082.9645890738975 pbc="F F F"
C        0.00000000       0.00000000       0.00000000       1.56030910      -0.96360207       0.10117090