5
Properties=species:S:1:pos:R:3:forces:R:3 energy=-1087.9375228369197 pbc="F F F"
C        0.00000000       0.00000000       0.00000000       4.46550631      -1.08292805      -2.22026736
H        1.19577180       0.69582632      -1.53777680      -1.73471174      -0.74169160       2.03607704
H       -0.07590599       1.04620262       1.95058034      -3.07258741       2.40619985      -0.70252443
H       -1.10813614       1.91728119       1.81155538       3.20720889      -2.57161596       0.43505193
H        1.39764218      -0.98903322      -0.05350022      -2.86533480       1.98998331       0.45192918
5
Properties=species:S:1:pos:R:3:forces:R:3 energy=-1088.514044340533 pbc="F F F"
C        0.00000000       0.00000000       0.00000000      -1.84183731      -0.21610183      -0.36806592
H        0.83552005      -1.71310156      -0.76561295      -1.29708459       2.62568165       0.62172233
H        0.90331127       1.46854740      -0.17934739      -2.47694327      -3.15170131       0.13153307
H       -1.61007917       0.51011817      -0.93935798       1.95438946      -0.75225627       0.73237906
H       -1.56022970      -0.37013976       0.43731466       3.66123968       1.49448420      -1.11741993
5
Properties=species:S:1:pos:R:3:forces:R:3 energy=-1092.8809241070596 pbc="F F F"
C        0.00000000       0.00000000       0.00000000       2.03353988      -1.94658050       6.60564005
H        0.33288508      -1.08396555      -0.33006698      -0.30746140       0.97803162       0.08800427
H       -0.52434359      -0.04295474       1.36170755       0.20670033      -1.07019646      -2.72570687
H        1.20464456       0.16802618       1.02280294      -2.17266747      -0.31933373      -2.81765162
H       -0.38619114      -1.53322282       1.44968548       0.23988557       2.35802250      -1.15015729
5
Properties=species:S:1:pos:R:3:forces:R:3 energy=-1090.0177041541149 pbc="F F F"
C        0.00000000       0.00000000       0.00000000      -1.03901308       0.29749065      -0.61990456
H       -0.25533345       0.26890487      -1.31976496      -0.39833451      -0.45620286       2.99220337
H       -1.45622423      -0.03142839       1.57228308       1.10019199       0.18226816      -2.13536229
H        1.97882333      -0.14931434      -1.32483353      -3.44227467       1.02388367      -6.57482794
H        2.29068308      -0.23670765      -0.78375890       3.77953979      -1.04750698       6.33809505
5
Properties=species:S:1:pos:R:3:forces:R:3 energy=-1087.8134660945493 pbc="F F F"
C        0.00000000       0.00000000       0.00000000      -0.16742826       0.55440671      -0.36219866
H        0.61492280       2.12382743      -0.44390551      -0.16643324      -2.06549716       0.75543827
H        0.94230647      -0.55907117      -0.91319516      -0.60932190       0.30378934      -0.04728672
H       -0.29689992      -1.59499865       1.89547746       0.64046825       1.16459455      -1.17303035
H        1.24818158      -0.79932018      -0.14437201       0.30262772       0.04271118       0.82711140
5
Properties=species:S:1:pos:R:3:forces:R:3 energy=-1084.5950967339254 pbc="F F F"
C        0.00000000       0.00000000       0.00000000       3.05837897       0.00921330      -0.20518647
H        0.00478340       0.20799794      -2.17271599       1.83518329      -1.24836782       1.55912331
H        1.03252523       2.04828885       1.37609677      -0.55336490      -1.08842045      -0.92789560
H        1.93290069      -0.73743077       0.60307504      -2.23140178       0.77114772      -0.99175669
H        1.39059394      -0.77364258      -1.90340992      -2.10871228       1.55633778       0.56571957
5
Properties=species:S:1:pos:R:3:forces:R:3 energy=-1086.0373905110757 pbc="F F F"
C        0.00000000       0.00000000       0.00000000       0.19527640       1.46125577       0.52876200
H        1.15150902      -0.50437203       0.33500192      -2.47684557       1.12268555      -2.15937126
H        1.01358629       2.38118667      -1.38787957      -0.32033697      -0.86248568       0.56995366
H       -1.22217880       0.53499741      -1.16315791       3.22368092      -1.07754005       1.80918532
H        1.31964053       2.13066941       1.56447840      -0.62189922      -0.64372224      -0.74854308
5
Properties=species:S:1:pos:R:3:forces:R:3 energy=-1090.5045541981044 pbc="F F F"
C        0.00000000       0.00000000       0.00000000      -0.15899606       0.84970318      -0.45411204
H       -0.74620190      -1.50398495      -0.16584106       1.33304662       4.20190744       0.78388394
H        0.51071624       0.22420657      -0.95004842       0.58048696      -0.94262855      -0.69536339
H       -0.27563009       0.56074874      -2.92642413      -0.10477764      -0.06354844       0.82853219
H        0.16216762       1.40732628       0.47123988      -1.64987815      -4.04529890      -0.46284608
5
Properties=species:S:1:pos:R:3:forces:R:3 energy=-1087.6154662406004 pbc="F F F"
C        0.00000000       0.00000000       0.00000000      -1.90629593      -1.37025976       0.36829732
H        2.73631496       0.76186014      -0.76382753      -1.58978630      -1.09321710      -0.77055482
H        1.35241706      -0.54501910      -1.81960708       0.57060209       0.81835422       0.93151675
H       -1.41680996       0.62573178      -0.08751954       3.05741995      -1.85546931      -0.56221824
H       -0.04359108      -1.51888903      -0.28714299      -0.13214653       3.50083260       0.03315233
5
Properties=species:S:1:pos:R:3:forces:R:3 energy=-1082.214476422022 pbc="F F F"
C        0.00000000       0.00000000       0.00000000     -30.29910932      12.45617711     -41.51157437
H       -1.23382270       2.25514405      -0.07135827       1.15183622      -1.07057647       0.00566980
H       -1.74682537       0.26302739       0.93841018       2.84828581      -0.98989110      -2.04092872
H        0.78575049      -0.34925518      -1.48082340      -2.57533480       1.01003262       3.72765285
H        0.39798731      -0.17113955       0.55170301      28.87456223     -11.40529325      39.81871867
5
Properties=species:S:1:pos:R:3:forces:R:3 energy=-1086.7711111507322 pbc="F F F"
C        0.00000000       0.00000000       0.00000000      -2.08177019      -0.91224015      -1.45356199
H        1.07279495       0.57664469       0.99085757       1.65448145      -0.58657379      -1.38745942
H       -1.55684426       0.31082294      -0.66879344       3.13340739       0.09661901       1.25319326
H        2.45972278       0.45532303       0.85079123      -2.36052161       0.59572230       0.31111391
H        0.77208121      -1.31735261      -2.24666911      -0.34546180       0.80638573       1.27674098
5
Properties=species:S:1:pos:R:3:forces:R:3 energy=-1092.0694741198088 pbc="F F F"
C        0.00000000       0.00000000       0.00000000      -1.29104249      -3.24467296       3.28372855
H        1.20880918      -0.77230139       0.19093012      -3.56725193       3.15151414      -1.15070853
H        2.09966620       0.47196536       1.28805494      -1.30143438      -0.11429124      -0.53718185
H       -0.77837076       0.87693425      -0.46060652       3.16519807      -1.61632061       0.94607074
H       -0.95794118      -0.61310071       1.00015756       2.99439550       1.82384421      -2.54168316
5
Properties=species:S:1:pos:R:3:forces:R:3 energy=-1084.2924705400844 pbc="F F F"
C        0.00000000       0.00000000       0.00000000      -1.53513799       0.15537698      -1.03694077
H       -1.27429068      -2.33264286       0.41451196       0.71631840       1.26915571      -0.38655885
H        1.15681354       1.80380074      -1.49663846       1.00339505      -3.95241467      -0.65364979
H        1.59692582       0.52207038      -1.74034180      -1.29567408       3.52273121       0.91806216
H       -1.53222965       1.34811262      -1.46123863       1.11110581      -0.99492635       1.15906925
5
Properties=species:S:1:pos:R:3:forces:R:3 energy=-1084.5459266396267 pbc="F F F"
C        0.00000000       0.00000000       0.00000000       2.40243935       1.28069482       0.46374957
H        1.63997215       1.75996080       0.96354136      -0.80030610      -1.34802433      -0.80688349
H        1.22973057       0.62249793      -0.39750151      -1.75782648      -0.27365600       0.44442001
H        1.08195062       0.04703155      -2.44232393      -0.04510540      -0.15664350       1.13294529
H       -0.05972134      -1.20279701       2.41436485       0.20086958       0.49768249      -1.23395266
5
Properties=species:S:1:pos:R:3:forces:R:3 energy=-1085.7181290879976 pbc="F F F"
C        0.00000000       0.00000000       0.00000000      -0.93219192      -2.08961823       0.27923838
H       -0.12026873      -2.30568520      -1.15560019      -0.03153511       1.63637522       0.73899194
H        0.67682407      -1.97390024       1.91412332      -0.38464338       0.99725011      -0.84175693
H       -2.18093782       0.16494417       0.82840138       2.08875897       1.06354141      -2.43361811
H       -1.59844824       0.60508280      -0.01424847      -0.74026001      -1.60773929       2.25713905
5
Properties=species:S:1:pos:R:3:forces:R:3 energy=-1085.0696342467932 pbc="F F F"
C        0.00000000       0.00000000       0.00000000       4.79311436      -2.55227148      -3.14067899
H        1.16076660       0.11806091      -1.30850672      -2.30043850       0.21006282       2.31330328
H       -2.44612768       0.68996841       0.39155128       0.95556737       1.01107289       0.78487176
H        1.25499274      -1.23234976      -0.08803915      -2.34872024       2.01705396       0.58166041
H       -0.82910947       2.19310064       1.49934098      -1.09967983      -0.68564616      -0.53913023
5
Properties=species:S:1:pos:R:3:forces:R:3 energy=-1085.3490941244197 pbc="F F F"
C        0.00000000       0.00000000       0.00000000       0.86946777       3.51927256       0.49593671
H       -0.44544672       1.57911870      -0.29607493       1.18719919      -3.01038622       1.34085969
H        1.21526961       2.01727232       0.93824207      -0.71199278      -1.35772408      -0.54281771
H        0.39182007       0.20199406      -2.86440815       0.05155630      -0.16495023       1.02410787
H        1.11580180      -0.22130733       1.62946365      -1.39609627       1.01407696      -2.31796623
5
Properties=species:S:1:pos:R:3:forces:R:3 energy=-1087.979555647324 pbc="F F F"
C        0.00000000       0.00000000       0.00000000      -3.10353887       1.50727802       1.23524901
H        1.44473195       0.98448747       0.47274366       2.85960021       0.00638765       0.65247840
H       -1.67375155      -1.37483131       1.03438576       1.50244074       1.20983776      -0.80773556
H        2.43171165       1.07224574       0.73627343      -3.26231125      -0.26763293      -0.70940213
H       -1.19704357       1.50792738       0.25409138       2.00373821      -2.45579491      -0.37059178
5
Properties=species:S:1:pos:R:3:forces:R:3 energy=-1087.3188387941589 pbc="F F F"
C        0.00000000       0.00000000       0.00000000       2.39361275      -1.79482364      -2.13987715
H        0.74497614       0.04577232      -1.08107303      -0.97039750       0.97863892       1.99808898
H        0.98337527      -1.91118602      -0.54324151      -0.98854024       1.41149359      -1.47472835
H        1.69924296      -0.69295905       1.96173381      -0.68014965       0.28827684      -1.25339895
H        0.65211994      -1.16327871      -1.92362225       0.24529929      -0.88339339       2.86983886
5
Properties=species:S:1:pos:R:3:forces:R:3 energy=-1083.422003826483 pbc="F F F"
C        0.00000000       0.00000000       0.00000000      -0.88134062      -0.83899916       1.58962586
H       -2.06964842       0.40875109      -0.97983437       0.30756424      -1.22895701       1.68139577
H       -2.83124215      -0.62690236       0.45365893       1.35628272       0.87005039      -1.09336159
H       -1.07808123      -0.97067320       1.70868741       0.62112481       1.02381014      -1.93975525
H        2.59566764      -0.53870408       0.20370435      -1.40348820       0.17422471      -0.23789863
5
Properties=species:S:1:pos:R:3:forces:R:3 energy=-1087.1584442793865 pbc="F F F"
C        0.00000000       0.00000000       0.00000000      -1.82155233       0.78708342      -1.75897885
H        0.35279627       0.93528928       0.84910829      -0.34970053      -3.26522637      -0.19026943
H       -2.79855144      -0.83753060       0.53513840       1.61336898      -0.02624789       0.02559123
H       -0.30172775      -1.64261099      -0.84223506       0.61372671       1.49145544       2.89759496
H       -1.05326700      -1.62344897       0.65629259      -0.05598734       1.01301458      -0.97392351
5
Properties=species:S:1:pos:R:3:forces:R:3 energy=-1086.8232013049358 pbc="F F F"
C        0.00000000       0.00000000       0.00000000       1.46526206      -0.72875072       0.33459272
H       -1.86590592      -0.42648031       0.61104085       1.94005915      -1.28678114      -0.05339669
H       -0.21351805       2.11037802      -0.58551652      -0.28678663      -2.15128926       0.30693483
H        1.11906239      -1.14189588      -1.30439514      -1.86241437       1.31741791       1.13697678
H       -0.75710807      -1.18071946       0.93150506      -1.25616238       2.84941967      -1.72519197
5
Properties=species:S:1:pos:R:3:forces:R:3 energy=-1089.7255239670633 pbc="F F F"
C        0.00000000       0.00000000       0.00000000       2.23379034      -6.07154970      -1.78789349
H       -0.33537262       0.94037744       0.11069597      -1.92276745       5.72061299       0.19473133
H       -0.00790263      -0.78350167       2.65227940       1.55492367      -0.14636166       0.09701085
H        0.81045896      -0.86193057       2.68682667      -1.51978439       0.13496292       0.02168624
H        0.53265846      -0.29307894      -2.62587326      -0.34616011       0.36227477       1.47429435
5
Properties=species:S:1:pos:R:3:forces:R:3 energy=-1086.7708193134679 pbc="F F F"
C        0.00000000       0.00000000       0.00000000      -0.67265025       6.70014974      -0.72546022
H       -2.40615600       0.34229218       0.65707546       1.72139804      -0.26223824      -0.23735869
H        2.03447474       1.16160632       0.60919848      -2.31281117       0.38817607       1.64545482
H       -0.21132684      -0.98712357      -0.04819595      -0.88438583      -5.74604275       0.81336936
H        0.58201397       1.50376731       1.44811003       2.14849652      -1.08005973      -1.49636265
5
Properties=species:S:1:pos:R:3:forces:R:3 energy=-1086.1028391444852 pbc="F F F"
C        0.00000000       0.00000000       0.00000000       0.30378009       3.17964665       2.07065737
H        1.34709757       1.83484717      -0.83697765      -1.22393153      -1.36604212       0.80243394
H       -1.98776188       1.05099920       0.67243838       2.53386032      -1.08663044       0.69587298
H       -0.91360064       0.58419003       1.34066441      -0.65655308       0.36012892      -2.27669590
H        1.18652584       1.39228036       1.67492282      -0.95740057      -1.08719609      -1.29216863
5
Properties=species:S:1:pos:R:3:forces:R:3 energy=-1087.2428747974343 pbc="F F F"
C        0.00000000       0.00000000       0.00000000      -0.15184274      -1.88601917      -1.47582570
H        0.32828643       1.08517686      -1.21580401      -7.58396478      13.23015664       2.38355871
H       -2.21361428      -0.66700819      -0.13587509       2.09085236       0.65761032      -0.21188985
H        1.11524504      -1.21664716      -1.33362771      -1.49754022       1.31316941       1.69184063
H        0.59724822       0.58834985      -1.29106145       7.14261930     -13.31494961      -2.38805865
5
Properties=species:S:1:pos:R:3:forces:R:3 energy=-1085.6813530527809 pbc="F F F"
C        0.00000000       0.00000000       0.00000000       0.29429168      -0.14785341      -1.70881866
H       -1.53107871      -0.99542163       0.03845671       1.96695033      -2.04132312       1.22821396
H       -0.96379824      -1.79505410       0.48084832      -1.49174186       3.00700471      -1.64128295
H       -0.15623051       2.91322862      -0.58708245      -0.15332729      -0.86734404       0.14486322
H        0.61570177      -0.19470855      -2.34958488      -0.61615332       0.04935595       1.97714888
5
Properties=species:S:1:pos:R:3:forces:R:3 energy=-1086.3233270861365 pbc="F F F"
C        0.00000000       0.00000000       0.00000000       2.26696838       0.06237602      -1.83883838
H        1.70561632       0.37952532      -0.97268426      -0.19381704      -1.80173837       1.31404925
H        0.93824829       0.76885895      -1.00557748      -0.10520290       1.48175570      -0.03669840
H        0.91324287       1.96677159      -1.03223470      -1.30962952      -0.68104491       0.01498800
H        0.92248550      -1.96038052      -1.63730896      -0.65860894       0.93856003       0.54643834
5
Properties=species:S:1:pos:R:3:forces:R:3 energy=-1085.7974922676003 pbc="F F F"
C        0.00000000       0.00000000       0.00000000       2.85992623       0.17140987       0.82478507
H        1.56404756       2.17698491      -0.84420638      -0.73370884      -1.18854028       0.37627803
H        1.46644915       0.46517466       2.55341899      -0.52313282      -0.21348393      -1.02575646
H        1.92044822      -0.58394470       0.31443345      -2.45430573      -1.04507728      -0.42088978
H        1.18365365      -1.26660826       0.06452610       0.85125201       2.27547462       0.24574204
5
Properties=species:S:1:pos:R:3:forces:R:3 energy=-1088.2650809705951 pbc="F F F"
C        0.00000000       0.00000000       0.00000000       0.44076750      -3.03846320      -2.49714444
H       -0.25634597       0.24185635      -2.41803429       0.14869313      -0.19979280       2.06736018
H       -1.93758117      -1.57135983       0.45342120       0.91537021       2.21641944       0.36985695
H       -1.67308043      -0.74369676       0.66098139      -0.38376046      -1.79398957      -0.59523482
H        0.76228660      -1.80363670      -0.39857359      -1.12095468       2.81596651       0.65509218
5
Properties=species:S:1:pos:R:3:forces:R:3 energy=-1087.709504426846 pbc="F F F"
C        0.00000000       0.00000000       0.00000000      -3.22639498      -0.42053805      -0.36607589
H       -1.76948200       0.26975024       0.65763709       3.55217909      -0.83938431      -0.59671629
H       -1.15846727       0.82369782      -1.69278130       1.88182158      -0.61755714       1.53951401
H        0.81960389      -2.28688382      -0.88079827      -0.68958149       1.55071580       0.65299107
H        0.93189177       0.20374864       0.72218642      -1.51780001       0.32658681      -1.22964195
5
Properties=species:S:1:pos:R:3:forces:R:3 energy=-1085.5563148888143 pbc="F F F"
C        0.00000000       0.00000000       0.00000000      -1.43313560      -1.64999334      -2.76986250
H       -0.22101387      -1.30499057       1.78006712       0.26818881       1.15783615      -1.71665744
H        2.53430985       1.31497735       0.57120662      -0.62574560      -0.61196293      -0.26284091
H        0.25996273       0.37689184       0.92887800       1.96071592       2.40381027       5.96963318
H       -0.35295081       1.69961925       1.44172864      -0.17021225      -1.29989377      -1.22042403
5
Properties=species:S:1:pos:R:3:forces:R:3 energy=-1084.7661681410677 pbc="F F F"
C        0.00000000       0.00000000       0.00000000      11.49214155      -3.39811544      12.97471126
H       -0.65642016       0.52333424       2.15312073      -0.78119713       0.29304573      -2.81547800
H        2.13023200       1.08491158       1.62701528      -0.42014878      -0.04155676      -0.71818760
H       -1.56272872       1.45465476       0.84311984       1.56243798      -1.36435290       0.88336562
H       -0.64676309       0.20875796      -0.56216608     -11.85337194       4.51097731     -10.32449818
5
Properties=species:S:1:pos:R:3:forces:R:3 energy=-1084.9825079782695 pbc="F F F"
C        0.00000000       0.00000000       0.00000000      -1.58343876       1.81540225      -0.34251017
H       -1.03276742       1.32559664       0.39999386       1.80119278      -3.29848515      -0.03353389
H        0.16053430       1.08975607      -2.11810422      -0.14447652      -1.25428393       1.36402637
H       -2.30460590      -0.64348555       0.36390812       1.60208492       0.48850879      -0.42781633
H        0.90495397      -1.73988530       0.52345922      -1.67532283       2.24858498      -0.56025134
5
Properties=species:S:1:pos:R:3:forces:R:3 energy=-1085.466927260963 pbc="F F F"
C        0.00000000       0.00000000       0.00000000      -1.10170997       1.34220592       1.26898807
H       -0.76452468      -1.66693784       1.22463608       0.49324374       3.41753190       0.56770497
H        2.31518101       1.33725322       0.60483281      -1.19117154      -0.68419503      -0.11181835
H       -1.39400492       1.66522688       0.03684052       1.55607141      -2.02980921       0.21872899
H       -0.71195499      -0.35557929       1.82677378       0.24363579      -2.04577216      -1.94361910
5
Properties=species:S:1:pos:R:3:forces:R:3 energy=-1086.4169750592164 pbc="F F F"
C        0.00000000       0.00000000       0.00000000      26.99392902     -12.36976692      13.41267317
H       -0.61263468       0.26497112      -0.37805887     -28.26829584      10.00496854     -13.75601998
H        0.34348414      -0.37735680      -1.55385934       0.44315040       0.23164004       4.13962243
H       -0.78165718       1.66302542      -1.25159010       1.13415473       0.00129172       0.91888645
H        0.21269319      -0.57404256       1.48812998      -0.30300310       2.13154523      -4.71546958
5
Properties=species:S:1:pos:R:3:forces:R:3 energy=-1087.9668666126356 pbc="F F F"
C        0.00000000       0.00000000       0.00000000       2.07974931       3.70598769      -0.46630730
H        0.21343599      -1.34347464      -2.44096159       2.46567052       0.70958982       0.94530764
H        1.03744256       1.23746469      -0.90786054      -1.91002865      -2.32712811       1.64560343
H        0.22139019       1.97761546       1.76637946      -0.17780369      -1.25716665      -1.02952622
H        0.99410267      -1.08252623      -2.11232895      -2.45752321      -0.83118506      -1.09500350
5
Properties=species:S:1:pos:R:3:forces:R:3 energy=-1088.6706986158533 pbc="F F F"
C        0.00000000       0.00000000       0.00000000      -1.15872061       4.66827953       0.21946535
H       -1.99626213       1.33789822      -0.21200462       1.61633707      -1.27733439       0.14587006
H        0.35532076       1.72893367       0.20371261      -0.49866825      -3.47470966      -0.31111185
H       -1.03151589      -1.76522480       2.12267903       1.77692207       2.14625298       1.35036712
H       -0.50981150      -1.14600578       2.53834653      -1.73585896      -2.06264066      -1.40443950
5
Properties=species:S:1:pos:R:3:forces:R:3 energy=-1090.1043460166954 pbc="F F F"
C        0.00000000       0.00000000       0.00000000       1.06655937       0.01853509       0.77151847
H       -2.75737379       0.34836834      -0.88211182       0.67684218       0.68957686      -0.41150319
H        0.51954917       1.02793809       0.40814064      -0.39594389      -1.37975639      -0.16013609
H        1.12438282      -2.06367244       1.27357293      -0.55677881       1.33196264      -0.61303303
H       -2.18210371       0.83157054      -1.17465522      -0.79057807      -0.66034546       0.41302425
5
Properties=species:S:1:pos:R:3:forces:R:3 energy=-1086.950911513594 pbc="F F F"
C        0.00000000       0.00000000       0.00000000      -2.97337569      -6.91273481      14.99072392
H       -0.10211936       0.57105138      -0.72421704      -9.16916681      12.40454008      -6.93706620
H        0.58585907       2.63705518       1.18971226       1.52758872      -3.07990323       1.23196314
H        0.50275988       0.09818666      -0.80437812      12.32826056      -5.12775130      -7.58916253
H        1.23636586       1.33897738       1.76507586      -1.71342094       2.71574744      -1.69664602
5
Properties=species:S:1:pos:R:3:forces:R:3 energy=-1085.9504899098733 pbc="F F F"
C        0.00000000       0.00000000       0.00000000       2.96778045       0.25487100       0.81041876
H        1.88661529       0.35046378       1.38979977      -1.69422301      -0.29669515      -1.29292094
H       -2.12739741       0.54395999      -1.94705061      -1.31770793      -1.29253733       3.22275687
H       -2.46459841       0.20787969      -1.10963753       1.27877164       1.32225107      -3.22828371
H        2.68947964      -0.00678083      -0.95735167      -1.23463812       0.01206619       0.48815706
5
Properties=species:S:1:pos:R:3:forces:R:3 energy=-1084.1166163028856 pbc="F F F"
C        0.00000000       0.00000000       0.00000000      -1.34654183      -2.16880105      -0.24259706
H        1.92120808      -0.92668975      -0.20612007      -2.10750541       0.37063240       0.13095046
H       -1.08347852      -1.57486778       0.87594305       0.70587612       1.95699553      -0.43798248
H       -2.22006718       0.06242180       0.25461313       2.07619964      -1.27497052      -0.33949530
H       -1.19469223      -1.31299609      -1.73209748       0.67194423       1.11624031       0.88918197
5
Properties=species:S:1:pos:R:3:forces:R:3 energy=-1085.0186564475684 pbc="F F F"
C        0.00000000       0.00000000       0.00000000       1.95341861      -2.45790733      -1.84068289
H       -0.45936097      -2.26550533       1.10515585       0.38977427       1.31542787      -0.75806748
H       -0.39456643      -1.51661897      -2.04857336       0.31041868       0.63917807       1.25712808
H        2.31770334      -0.23645512       1.65637769      -0.83966610      -0.12428461      -0.64005636
H        0.91834061      -0.32372312      -0.98402105      -1.81384159       0.62776700       1.98184474
5
Properties=species:S:1:pos:R:3:forces:R:3 energy=-1086.9105883834673 pbc="F F F"
C        0.00000000       0.00000000       0.00000000       2.00254881      -3.67291044       0.07890411
H        1.12323902      -0.94803969       0.20520700      -2.62283390       2.31458986       0.08054139
H       -2.38535109      -0.49389035       0.60302148       2.18530702       1.13114603       3.12420130
H       -1.72518587      -0.03399031       1.81366225      -1.54525426      -1.12037773      -3.06477176
H       -0.23925760      -2.67541932      -0.04087202      -0.01958719       1.34720621      -0.21877938
5
Properties=species:S:1:pos:R:3:forces:R:3 energy=-1088.4611547570858 pbc="F F F"
C        0.00000000       0.00000000       0.00000000       1.21016635       5.75828429      -4.39092525
H       -0.08637411      -0.65709007       0.73415535      -1.29571367      -5.40657368       3.65500167
H        0.98614665      -0.60199212       2.03235403      -0.03010712       0.67885638      -1.28834849
H        0.36238644       0.44966048      -2.87130855      -0.24541036      -0.27722984       2.15988754
H        0.17443704       0.40269189      -1.43869496       0.36099539      -0.75350634      -0.13570134
5
Properties=species:S:1:pos:R:3:forces:R:3 energy=-1086.1307052896736 pbc="F F F"
C        0.00000000       0.00000000       0.00000000      -0.69141469       1.59548849      -1.06686174
H       -1.32447856       1.52702467       1.58268558       0.94891901      -0.91280631      -1.19633946
H        1.15848870       1.06926355      -2.03922575      -0.59587554      -0.45638696       1.49093145
H       -1.40414142       0.20827788      -2.09678258       1.82621014       0.44622749       2.46792127
H       -0.66096876       0.46660807      -1.39771901      -1.48770626      -0.67239880      -1.69565923
5
Properties=species:S:1:pos:R:3:forces:R:3 energy=-1091.5501716842484 pbc="F F F"
C        0.00000000       0.00000000       0.00000000      -2.42419501       0.71741164      -3.98929408
H       -0.57726136       0.49279509      -1.39143207       1.79415207      -0.57060261       2.88220742
H       -0.79579101      -0.81279977      -0.32946807       0.55265990       0.04166732       1.00191307
H       -2.50556048       1.52573842       0.18663764       3.41636668       2.60457649      -1.02195174
H       -1.54948498       2.26105385      -0.11790022      -3.33898569      -2.79285589       1.12729451
5
Properties=species:S:1:pos:R:3:forces:R:3 energy=-1086.5741887906868 pbc="F F F"
C        0.00000000       0.00000000       0.00000000       3.20157971      -2.28303881      -5.23967301
H        1.05030471      -1.59454567      -0.65163420      -1.66652811       2.26428209       1.14764018
H       -1.32493371      -0.42318464       1.75137469       0.86216069      -0.32026447      -1.06668279
H        2.46300878      -0.01465186       1.38149390      -1.06163108      -0.11909458      -0.56765252
H       -0.25259642      -0.06387206       1.01458404      -1.33588204       0.45832917       5.72647099
5
Properties=species:S:1:pos:R:3:forces:R:3 energy=-1087.843106308031 pbc="F F F"
C        0.00000000       0.00000000       0.00000000      -0.13825753       1.49426720       1.62496415
H       -0.27325669       0.34862595       1.23076235       0.59241174      -1.01766108      -2.37760300
H        2.18025014       1.01978565       0.89589702      -1.71672429       0.65059841      -2.52588527
H        1.45370483       1.36175070      -0.26390635       0.68094875      -1.86190015       2.75858872
H       -1.29798093      -2.31536976      -0.91694697       0.58162493       0.73461027       0.51985004
5
Properties=species:S:1:pos:R:3:forces:R:3 energy=-1086.5077965997364 pbc="F F F"
C        0.00000000       0.00000000       0.00000000       1.39219076       0.43823907       1.19685934