1536
Lattice="24.861165999999997 0.0 0.0 0.0 24.861165999999997 0.0 0.0 0.0 24.861165999999997" Properties=species:S:1:pos:R:3 ipi_comment="Step:      200000  Bead:       0 positions{angstrom}  cell{angstrom}" pbc="T T T"
O       -2.89770838       6.76492149      25.78733892
H       -3.22693259       6.92327461      24.89600383
H       -3.73951469       6.82619967      26.21403556
O       14.14055383      24.29643051      -3.20001086
H       14.07438235      24.08626251      -4.11558478
H       13.61617305      25.06489222      -3.10655103
O       -3.80387023       7.50534051      23.20647996
H       -4.32702965       6.79366991      22.91044971
H       -2.93633337       7.37711136      22.81086066
O       10.10851674       9.95504169      37.52918951
H       10.72513061       9.67505561      38.19072005
H       10.10864677      10.90933099      37.79461274
O       12.88472036      17.74854415      14.83955161
H       13.65348508      17.32401078      14.47727108
H       13.15938675      18.66283973      14.78421994
O       23.27416153      17.28121925      10.39065520
H       22.65222395      16.86672843      10.97211909
H       23.97301209      17.50036781      10.96243160
O       28.82916621      15.24193736      -3.53797364
H       28.38533301      15.35426383      -4.37080367
H       28.10799208      15.01400529      -2.92257296
O       36.91419288      12.97258442      19.53548293
H       36.34830761      13.58612620      19.98311684
H       36.52139599      12.12326676      19.73067789
O       11.98440021      13.19881081      16.68764620
H       12.18844073      13.18309433      17.63085901
H       11.92410272      12.28698658      16.43978129
O       25.06857639      13.20745748       7.56852949
H       25.32922900      12.38549309       8.03655019
H       25.90709421      13.50763834       7.13281253
O       26.04968879      -1.19143628      11.97368355
H       26.56010316      -1.61519452      12.70387999
H       26.64322428      -0.98829550      11.24431443
O       12.62953507       5.53312570      -3.86554044
H       12.22170511       5.57266846      -4.75519884
H       13.36403930       6.07627704      -3.90633355
O        7.21011110      14.23653715      11.64574225
H        7.16040632      15.17644010      11.87876587
H        8.00894171      14.13231429      11.11102381
O        5.75686137       3.23450333       6.11025129
H        5.47861979       3.92984330       6.70729624
H        6.36394695       3.53757750       5.33770110
O       -5.30137956      16.78008117       7.87578064
H       -4.39528301      16.56383047       7.66270214
H       -5.25947464      17.01528003       8.83460527
O       20.70901653      21.88727563       8.22712883
H       21.21160184      21.72322472       7.46085033
H       20.81450566      21.12522498       8.74632812
O        6.65954915       9.24157072       6.86238273
H        7.40725991       9.76709105       6.63255479
H        5.84560307       9.75202263       6.91003018
O       10.53731445       2.31171306      20.25583235
H        9.96401205       1.61292527      19.97591921
H       10.86218529       2.68864878      19.45364981
O       21.65600333       6.39874163      14.21793413
H       21.39784311       6.85560380      13.38201217
H       22.63049097       6.62894914      14.23124420
O        9.00042426      21.56430159       6.05210955
H        8.98590878      21.85462469       5.13288219
H        8.20891345      21.02488106       6.20393886
O       12.66446786       8.58938864      -2.94784209
H       13.44409217       9.05503938      -2.55875168
H       12.26682023       8.05868258      -2.20368212
O       -3.32493687      14.05221857       8.22966294
H       -3.88867326      13.71396908       7.52280192
H       -2.75500906      13.26741732       8.45694143
O       10.81420326      28.97499501      27.79811194
H       10.08823397      29.23216638      27.21213180
H       11.52963690      29.13592238      27.22324693
O       11.59868215       2.70950463      -1.07115883
H       12.26941158       3.00874568      -0.49142643
H       11.92657137       2.28368144      -1.85362480
O       13.77014968      15.76876936      26.65977008
H       13.91517300      14.95642463      26.27052180
H       14.58574632      15.87541375      27.23538471
O       24.22457182       7.25666899      15.06905183
H       24.11454843       7.92140274      15.72248945
H       24.73920510       7.64182582      14.35039351
O       24.44912046       0.44525823      13.69350101
H       25.04516977       0.88904928      14.26921102
H       25.03177628       0.04096515      13.08458450
O        4.01663700      20.82026519       0.18837690
H        4.77152889      20.62290738      -0.35944431
H        3.77311230      19.97469040       0.57065169
O       11.32046927      16.94478232      25.70848478
H       11.26693165      17.84816683      25.19280827
H       12.17045082      16.93954159      26.08221117
O        9.32194731       9.74990619       3.24607960
H        9.41189674       9.69283582       4.26906724
H        8.45049084      10.03144194       3.10364815
O        7.00320794      22.61468125     -13.81410530
H        6.39651083      23.24052397     -14.26398405
H        7.30170968      22.11596702     -14.53814742
O       25.84912363      19.39882890      -2.16279376
H       25.85221498      19.52674493      -1.25095641
H       26.79959027      19.50432712      -2.35292774
O        7.33213268      12.47457400      -2.23568490
H        7.02882400      11.83206698      -2.87320605
H        7.89130215      13.07677426      -2.70000103
O       24.55538510       5.08626929       6.74175793
H       24.85494209       5.02118876       7.68136713
H       24.59508902       4.12226488       6.59239830
O       -0.61155940      29.16848750      22.56046408
H       -0.02572937      29.44818483      23.25177091
H       -1.24770071      28.57986760      22.99507587
O       19.88682434      11.74727823      28.84408800
H       20.09359411      12.65190562      28.58064121
H       19.47430982      11.41271964      28.03343047
O       10.64755854      -8.82036751      13.28612827
H       10.52124545      -9.19404408      14.13524036
H       11.21670116      -8.07091621      13.54967833
O        8.91313336       4.62168315      -8.69513572
H        8.28613995       5.06287781      -8.17890961
H        9.72937275       5.10037720      -8.51167579
O       15.55374461       7.46735833       6.45718193
H       14.68585850       7.14188592       6.57936378
H       15.70012111       8.19185483       7.09306424
O       10.54177814      10.34250031      -0.65166731
H       11.05329133       9.53809064      -0.49160634
H       10.73660622      10.56230957      -1.64269164
O       16.25670607      18.05727870      22.23242528
H       15.66009614      18.63879470      22.74233617
H       15.77022419      18.01750778      21.33032196
O       13.73131662      20.31775021      15.38334215
H       14.58016469      19.85712830      15.24991612
H       13.89245733      20.85586872      16.20152002
O       12.66587815      11.97664627      30.50098037
H       12.66972079      11.09480138      30.88296518
H       12.01619711      11.83000702      29.79187953
O       21.77028960       3.75314832       6.95437609
H       20.91119303       3.82772567       7.32448115
H       22.32977073       4.37708885       7.40874369
O        8.29948984      21.07772845      14.33722564
H        8.19078280      21.92099502      14.82665257
H        7.38815168      20.81003562      14.28396462
O       22.27332948      12.51514341      14.44556817
H       21.38628662      12.85202029      14.75601992
H       22.75759436      12.46548318      15.27830660
O        7.71159321      -9.74385743      15.40813016
H        7.17996316      -9.12894601      15.92520874
H        7.57509436      -9.52804250      14.49798596
O        4.13173996       8.46288491      16.75435660
H        3.78333997       9.18097299      16.21553565
H        5.08993504       8.70227534      16.76665500
O        9.04858811       7.57123321      22.23046018
H        9.65488075       6.86108876      22.31114611
H        9.31052396       7.97074192      21.40684396
O        8.54425128       0.02477205      21.68180777
H        8.56919793      -0.03300520      20.73915565
H        8.62683109       0.94345757      21.91893037
O       20.57495215      14.20095638       3.22031526
H       21.19587236      14.64940224       3.77132448
H       21.16177824      13.70308856       2.63978615
O       19.01374287      15.03620557      13.38946113
H       19.80737228      14.70655566      12.98595969
H       19.21055629      15.87549961      13.86927384
O       10.62945330       5.50341201      -1.97832114
H       10.65137995       4.67222416      -1.51483998
H       11.35129744       5.45645389      -2.63024432
O       12.34959323     -13.56711082      26.00051935
H       11.59280811     -13.59755523      25.41527855
H       12.81465250     -12.74213222      25.76920275
O       12.21920864      20.14261392      19.03592664
H       12.81265400      20.17105059      19.86938921
H       12.22838147      19.19205618      18.74141902
O        8.02326951      11.84159862      14.05288440
H        8.58622721      12.41540070      13.54395065
H        7.26245788      11.87991318      13.44763572
O       24.81482023      10.48732088      19.78301622
H       25.31661231       9.71709999      19.76500596
H       24.28627623      10.35875771      20.61210940
O        0.46321145       2.53537814       6.97548970
H        1.21197736       2.48828505       6.38073595
H       -0.19336899       1.89571994       6.76531550
O       27.84195446       1.27689112      12.51024675
H       27.21986692       0.63554546      12.24689757
H       28.75667919       0.89307731      12.59721100
O       16.94813125      12.84355544       7.26019626
H       17.09154757      13.78141179       7.57453216
H       17.81369850      12.62633689       6.97858238
O       16.19205697      20.84037309      -5.35617857
H       15.81769705      20.18470993      -4.78670346
H       16.57096362      20.34147754      -6.10848456
O        6.20741387       6.71811990      24.11315834
H        7.06416141       6.88335058      24.46442398
H        5.85908983       7.55163551      23.87078861
O       18.62657175      23.81308093      25.15411542
H       17.71476955      23.87475456      25.39877648
H       18.77051421      24.67210683      24.79723063
O       10.83068910       1.29797510      27.51552810
H       10.94823245       2.19405113      27.81954893
H       10.27208711       1.37363076      26.73272683
O       19.68360451      22.04615425      19.91898616
H       19.47971484      21.21662652      20.38255028
H       20.44824936      21.88052873      19.36663204
O        0.16952313      26.05796339      21.20169673
H        0.77511745      25.50836967      21.65137072
H       -0.17295022      26.76917114      21.75506764
O       25.52811140       0.51118357       4.28856687
H       25.03272357       1.24370665       3.90868117
H       25.12752836       0.15229314       5.08405072
O       -6.53283029      25.87812241      12.56642605
H       -6.25299179      26.76978242      12.79116733
H       -5.78656108      25.46329128      12.08591849
O       14.48866077       9.71116048      25.78714296
H       13.56717910      10.10556857      25.84092287
H       14.85965287      10.19090390      26.50772877
O        4.79399332      15.86332842       6.11913641
H        4.85021157      15.67733454       5.18609772
H        3.89644163      15.48240758       6.37431942
O       15.82053556      30.26718532      15.12294149
H       15.15086823      29.67104781      15.25257434
H       16.57755699      29.70955365      14.76354641
O       24.77058260       2.97413839      10.87324010
H       24.10106825       2.37102151      10.63555659
H       24.46672645       3.35443349      11.74181302
O       12.80879258      22.15985189      -1.95252586
H       11.87687983      22.30028425      -1.95200335
H       13.10508128      23.03913507      -2.26130268
O        7.93701939      17.03783289     -12.42606059
H        8.82319643      16.97163028     -12.02250778
H        8.05235600      17.77279552     -12.98878504
O       -0.59162804      32.30926293     -13.84532951
H       -0.93540794      32.90631537     -14.55937504
H        0.12254371      31.78828343     -14.21462040
O        1.17807410      -2.37784150       7.45412029
H        1.81935697      -2.62299191       6.78359379
H        0.57884079      -3.09877776       7.44858855
O        1.46845185      12.76659220      20.52552964
H        1.59173967      13.08845292      21.42433185
H        0.94020413      11.96329141      20.43898761
O        3.72213273       6.14181973      25.35963406
H        4.16134939       5.91859959      26.19354745
H        4.53731459       5.97356040      24.83291408
O       11.91736567      18.24737705      -2.62292442
H       11.19884858      17.62376124      -2.83575332
H       11.60225912      18.72302848      -1.94186463
O       -4.83572687       5.48852168       9.02938458
H       -4.38656670       5.73248784       8.23693921
H       -4.18193713       5.35360023       9.65154037
O        0.83430289      33.07451342      13.15521172
H        1.24179231      32.15369144      13.22332799
H        0.19718231      33.05063078      12.39976887
O        0.14571008      21.68539959       2.88989074
H       -0.08188242      22.52379537       2.53175763
H        1.07890264      21.79641825       2.77269048
O       18.17848652      21.15672017       6.67912044
H       18.42779279      22.05121570       6.39601519
H       18.87523902      20.55584783       6.44914605
O        1.57173140      26.81259443      14.87551516
H        2.17713047      26.85384843      14.15477199
H        2.14751423      26.71806174      15.59778695
O       -2.31230195      20.35827427       2.02602772
H       -2.60259650      20.57183284       1.13877156
H       -1.62469588      20.91203191       2.38881344
O       15.92957773       5.78891764      17.98490381
H       15.22824599       6.45604483      17.97696899
H       16.37941738       6.05828466      17.19203722
O       13.23631200      15.88052484      21.35314156
H       12.89479739      16.73302831      21.46845304
H       13.00164592      15.32921708      22.07465933
O       21.23771995      17.47315126      21.65997387
H       20.97665653      16.68348752      21.12408861
H       20.44378302      17.97310323      21.65176294
O       11.00653665      22.68571634      13.59383511
H       10.28711264      22.97012059      12.97818505
H       10.56517429      22.47511658      14.40255483
O       25.16895898      20.84651379      17.38878415
H       24.63663608      21.04398087      16.64671648
H       24.94005029      21.32990155      18.15366792
O       17.59726799      18.42933242      10.41335829
H       17.91002584      19.22119426      10.02317343
H       16.76032874      18.46886444       9.97110300
O       25.84587041      10.18922819      28.49896868
H       26.60470145      10.58885243      28.17917165
H       25.16473873      10.77948735      28.19698416
O       -4.60604803      15.26161714      -4.40106911
H       -4.47415270      14.75291422      -3.59732763
H       -3.93697056      14.80145819      -4.94979308
O       -6.11349422      11.09056730     -12.90890524
H       -6.21648489      10.13372970     -12.93066673
H       -6.26834950      11.54967981     -13.75086723
O        3.37077549      20.97917574       9.65270725
H        3.20669957      20.04076345       9.60001608
H        4.01248012      21.09807385      10.33610045
O       20.22808109      -0.53130220      11.33999138
H       19.71334970      -0.40408952      10.51179362
H       20.37620442      -1.49528024      11.34835500
O       17.71463318      -7.04440910      29.78316508
H       17.09435556      -6.47243853      30.28835702
H       18.39019502      -7.18307356      30.41882710
O       19.43676484      -3.42740561      23.63476102
H       19.14667376      -2.68237025      24.17539757
H       20.33890837      -3.57377531      23.91297211
O        4.36370765      24.30268832      17.93306987
H        3.81688045      25.10799435      17.87320984
H        4.70614920      24.29821489      18.80880447
O       22.16024906      13.15845191      26.18761971
H       22.59351390      14.02261285      26.13731802
H       22.73050290      12.68175965      26.80602866
O        5.15451585      17.17715120       2.36137598
H        4.25024529      17.28149224       2.63187978
H        5.19261586      16.26239499       2.50629952
O       20.03934776      12.49114697       6.74189677
H       20.29707165      12.08449790       5.93376195
H       19.97464697      11.73818225       7.38695029
O       14.73029242      19.41842192      12.23123464
H       13.78893381      19.68214924      12.19813063
H       15.19998705      20.20818898      12.13773028
O       15.01805131      19.24738103       8.94712471
H       14.23448752      18.58619581       8.99875966
H       14.88508385      19.83912867       9.66136735
O       23.44284631       9.18621354       9.08795552
H       23.07379345       9.23025590       8.20084310
H       24.30837963       9.61379611       8.86490477
O        8.45265966      16.85448254       6.88727836
H        8.26080750      16.65842539       5.93109060
H        9.39754049      16.77105197       6.86734364
O       17.09588565      23.53769818      18.11192059
H       17.42318823      22.84332588      18.64754286
H       16.15176986      23.45745783      18.05824155
O       24.25922068       3.16457162      28.06901076
H       25.22640998       3.30307997      28.06274156
H       24.00978926       3.86475520      27.42322699
O      -11.17054167      26.06739052      11.58838373
H      -11.57594669      25.90676892      10.67082670
H      -10.35010101      25.62278685      11.52460822
O        0.83077508      10.63869691       8.78565200
H        1.34067147      10.41333198       7.95359810
H        1.52169022      10.48543399       9.44571133
O       17.84687877       1.13555683      30.43751982
H       17.75520332       1.51262973      29.54960592
H       18.63592045       0.60520296      30.58801852
O       24.45531147      20.38455514       7.77608617
H       24.50237595      19.46390382       7.63700891
H       23.68932904      20.34973724       8.36471413
O       19.71576611      26.09171400      23.84805500
H       20.04462554      25.42889420      23.23117282
H       19.06391838      26.62675408      23.35983966
O        8.42224060      -0.70524092      14.74662180
H        7.70245486      -0.88480645      15.39847717
H        9.00683162      -0.14220806      15.29159286
O       -1.46067361      -4.08394726       5.16179230
H       -0.89348893      -4.28733278       5.90050322
H       -1.00522641      -3.48433153       4.60279217
O        5.58908986      25.37305761      13.74416724
H        6.09992901      25.41607084      12.91005955
H        6.05699694      25.95909682      14.42123747
O        8.22025605       2.96416613      -2.85576445
H        8.99125760       3.29906144      -3.29246818
H        7.65190866       2.79539165      -3.61839601
O        4.92874480      -4.04387020      12.18283229
H        5.48154479      -3.39179573      11.78218703
H        5.12121562      -4.93168376      11.77542907
O        0.09968963      14.15272829      18.38521338
H        0.46722719      13.52409453      18.99708159
H       -0.76223060      14.43753452      18.65427643
O       15.05153798      14.99407119      19.47154208
H       15.84088292      14.72311702      19.93034945
H       14.37651556      15.29904248      20.11572427
O       19.37186713       5.24140501       4.80032610
H       20.08161356       5.77720554       5.13761669
H       19.74289083       4.59433091       4.24108851
O       15.18777975       0.02438326      14.87565929
H       15.24077905       0.80715297      14.23976737
H       14.70574148      -0.67025450      14.40955804
O       28.33588606       7.21993404       4.52850770
H       28.82377741       7.98669062       4.21734456
H       28.11352050       7.38222131       5.44747799
O       16.31003951       9.07788986       8.68330102
H       17.03272557       8.47430354       8.84135106
H       15.73243621       8.85333349       9.42684945
O       18.58063001      -3.02365671      28.00803305
H       18.36141868      -3.95810343      27.87943450
H       18.66969280      -2.64090680      27.12799695
O        3.17862603      16.90655907      13.03965205
H        3.27926714      17.37080293      13.87107995
H        3.20534325      15.99255781      13.29133721
O        8.04063177     -10.75153640      18.30496445
H        7.59143913     -10.14236263      17.70946059
H        8.16666548     -11.53753596      17.78853935
O       21.94554157       0.88304657      13.07433046
H       21.60072938       0.24002467      12.44938958
H       22.89426102       0.80229462      13.06877186
O       18.81381829       8.01657747       9.53467464
H       19.30230101       7.24833205       9.50479416
H       18.87616698       8.33478389      10.41940043
O        5.60295142      -0.77876161      20.50223020
H        5.37388106      -0.64931366      21.40308194
H        5.99875314       0.00401851      20.23471378
O       37.61953875       1.63563502      33.92994425
H       36.87773479       1.00524994      34.23661530
H       37.55602020       2.53310163      34.22916776
O       -3.77148053       7.63484583      11.95220491
H       -3.20328393       8.36253725      11.95044585
H       -3.39033612       7.03972881      11.28767464
O       28.33812437       8.07487801      -3.32988453
H       28.70276885       8.73434754      -3.90967663
H       29.04673402       7.46330323      -3.22689149
O       -5.39703046      23.84011354       6.49556100
H       -4.58242928      24.17860821       6.07979364
H       -4.98482974      23.14914285       7.06697713
O       14.42171528      11.70539041      -4.81865679
H       14.00359573      12.57797951      -4.79655628
H       15.28660781      11.83840626      -4.36164613
O       24.65061275      16.51281168      13.65156033
H       24.91899614      16.29841888      14.57955237
H       25.15015636      16.00545125      13.07584038
O       20.29012290       2.42135344       9.17412882
H       20.37252254       2.74702767      10.02569744
H       19.73010899       1.65933642       9.27876671
O       15.09315326      31.79331421      21.16000758
H       15.16613480      32.75671399      21.28569189
H       15.99889152      31.54921833      20.88615102
O        8.83780194       7.38091314      25.37443040
H        9.23124493       7.32403879      24.52969555
H        9.56068485       7.51027127      25.94828202
O       10.90848800      16.74058813       5.79417368
H       11.42655903      16.14121012       5.20822401
H       10.93102231      17.52114787       5.27388687
O       -3.07447078      11.64754515      -5.53218002
H       -3.01754311      11.06822517      -6.30434361
H       -3.91952096      11.41792143      -5.14300167
O       -2.49835753      -8.34203950       7.64959056
H       -2.93225221      -9.27769592       7.75648633
H       -2.17269313      -8.08080993       8.50432451
O        6.83972974       8.60858347      16.34209544
H        7.57201780       8.92284701      16.92873228
H        7.05154748       8.71331135      15.43125839
O        9.15532899      -0.61256646       7.52317289
H        9.08150830      -1.48671740       7.04362265
H        9.44210973      -0.00350503       6.86479119
O        8.37896610       2.45749061     -17.95630125
H        8.96760726       3.17953883     -18.19932327
H        7.52671842       2.91185188     -17.94412325
O       -0.73211613      22.32721382      19.60633338
H       -0.87019919      21.69624419      20.32834561
H       -1.57247609      22.50821437      19.25555944
O       24.05992294       7.59436689      30.84251174
H       24.35224949       6.66414541      31.10846855
H       24.37075582       7.65689202      29.93854202
O       16.16335030      -1.52884518       1.45608276
H       15.46114387      -1.28434023       0.78992262
H       16.21223289      -0.77324133       2.03233150
O       10.39188890       4.14506938      30.78924033
H       10.38777966       4.37165715      29.86762707
H       11.22255434       3.66990043      31.00982007
O       30.18461978      -0.53321620       9.67759328
H       30.37138173      -0.52975917       8.74858716
H       29.29413125      -0.78634032       9.70181004
O       21.23319017       6.78212711       6.23336670
H       20.60687780       7.50839460       6.04610477
H       22.12199634       7.13955470       6.14855500
O        3.87593991      15.60508483      16.53055128
H        4.66598741      15.96545795      16.91329475
H        4.04872465      14.81689462      15.90859266
O       26.98665893       6.16442184      19.67530621
H       27.33539646       6.65814328      20.44763074
H       26.03946689       6.44991215      19.63897384
O       25.98245301      19.73226796       0.43630351
H       25.98793693      20.41154796       1.08249719
H       26.29399135      18.90084144       0.88144094
O        8.66673586       5.88272725      13.48293356
H        8.80840921       5.42421341      12.65198203
H        8.97501194       5.39335584      14.22261270
O        6.24794558      15.02851335      32.92531552
H        5.72966395      15.19180617      32.12426704
H        7.06721646      15.39906054      32.69808844
O       21.05284793       3.42678956      25.14925845
H       20.68993073       4.26234965      24.72945606
H       20.43029391       2.77452881      24.80346608
O        2.94925941       9.99534624      10.36451004
H        3.75916337      10.48837534      10.13144418
H        2.58218943      10.42086520      11.16692492
O       15.23950967      20.84394674      23.95789379
H       15.77323849      21.22527702      23.21627787
H       14.34691038      20.94674971      23.72978255
O       16.26032670       2.95316191       7.47890026
H       16.80042773       2.25652558       7.05071418
H       16.32970812       3.67233500       6.81031153
O       12.41887820      15.09450128      28.94673101
H       11.85334176      14.36638669      28.77720531
H       12.94766136      15.26368291      28.13433861
O       10.82327546      12.04726100       3.26114300
H       10.20664636      11.28113290       3.41162308
H       11.43691472      11.73057449       2.57556078
O        9.18152959      14.21710183      -3.94355423
H        9.09248375      15.07714100      -3.57153560
H        8.57544248      14.28563242      -4.66919939
O        3.39685278       7.41839603      11.12463543
H        3.86637999       7.64928472      11.94971255
H        3.11973547       8.28606106      10.71038753
O       36.06409235      -8.82383612      18.65023256
H       35.49817760      -8.77894608      17.80432180
H       35.47609118      -9.30690970      19.22935195
O        3.34160083      23.94233003       4.36936018
H        4.10298734      24.55702742       4.60952777
H        2.53293434      24.39498205       4.43130375
O       19.09836973       5.23574121      23.77582535
H       18.31873509       4.72042314      23.54715930
H       18.66818076       5.87054616      24.30363255
O       19.22333413      34.57267563      23.22371913
H       19.95481181      35.09649736      23.57661753
H       19.65586187      33.73750810      23.18208707
O       18.90313329       5.59406852      14.52373924
H       18.58915820       5.93899961      15.43728526
H       19.86680290       5.72330085      14.47861520
O       30.53591536       0.65760248       5.05500720
H       30.84238176       0.05859556       5.70577598
H       30.72067346       1.47765690       5.55322468
O       15.71297809      -0.63508755       6.49390972
H       16.45994650      -0.20473225       6.12949656
H       15.81780944      -0.71762497       7.43649687
O       -4.13530862      17.76031974       4.55811641
H       -3.51070969      17.85812112       3.81024182
H       -4.90508180      17.43935607       4.13160450
O        2.89180967      -2.80082505      17.46633013
H        2.02861557      -2.52741348      17.33116268
H        3.33639605      -1.97040176      17.62356514
O       24.46411163       5.65856751       1.48971293
H       24.80597998       6.24302126       2.13961674
H       23.63845051       6.07408352       1.33713710
O       19.79407346      16.80851497      15.30531485
H       19.15081004      16.89084791      16.02666321
H       20.01741288      17.73465868      15.14414135
O       22.01141440      19.38965255       8.69384661
H       22.31963295      18.95279685       9.51529832
H       21.72817895      18.61429403       8.16323042
O       25.27713068      23.28847760      23.95859188
H       24.31438037      23.48641394      23.91888377
H       25.60181145      23.61308287      24.79444252
O        9.15154753      10.15883821       5.93353925
H        8.79075388      10.94104565       6.33693494
H        9.74941498       9.78234583       6.62690160
O        4.55529530      13.20613490      23.27868361
H        4.61485202      13.65978103      22.39785298
H        5.48820763      13.02562522      23.50722498
O       23.92073948      12.43784458       5.40989653
H       24.55502279      12.56453516       4.73071955
H       24.34804517      12.67928986       6.26752916
O       -2.86671114      15.83868325      16.62357697
H       -2.34642495      16.63245523      16.57277923
H       -3.60317027      15.97919248      16.03388838
O        8.58374629      11.23744767       9.61351757
H        8.33185110      11.42985874       8.70187593
H        9.20508936      10.56565315       9.48496560
O        7.13418638       6.56896604       5.99938526
H        6.97978045       6.06266433       6.85326796
H        6.84092277       7.44885276       6.15633160
O       25.20878898      12.35971201      23.78719717
H       25.78393613      11.60357248      23.79429917