5
Properties=species:S:1:pos:R:3:forces:R:3 energy=-1082.9387159119347 target_index=0 pbc="F F F"
C        0.00000000       0.00000000       0.00000000      -1.68394837      -2.15356108      -1.67031997
H        0.65188762      -2.47673965      -0.99463084      -0.94452139       1.24271139       0.33776546
H       -1.26559026       2.42678658      -0.87840964       0.02561900      -1.39273378      -0.86477859
H       -1.04748427      -1.65605732      -0.77479263       1.94643498       1.41872096       0.63375921
H       -1.65948386       0.67035258      -2.06183109       0.65624918       0.88497153       1.56368753
5
Properties=species:S:1:pos:R:3:forces:R:3 energy=-1087.581515499188 target_index=1 pbc="F F F"
C        0.00000000       0.00000000       0.00000000       0.93374847      -1.82992744       0.86945080
H       -0.81430179       2.62812250       0.08592717       0.44691295      -0.77217976       0.20698470
H        0.94879319      -1.34487605       0.73222902      -1.56106398       2.71672343      -1.02342447
H       -2.22795248       0.49013783       0.31816886       0.59649054      -4.53315463      -1.24355882
H       -2.31145423       1.13969469       0.49494826      -0.41606998       4.41885156       1.19049586
5
Properties=species:S:1:pos:R:3:forces:R:3 energy=-1084.052435786737 target_index=2 pbc="F F F"
C        0.00000000       0.00000000       0.00000000      -6.77120220      -3.69330187      -5.05784812
H        0.70245349       0.23019167       0.78061111      -0.59782957      -6.28939371      -4.05399489
H       -1.90102469       1.09895182       1.78472811       0.87456730      -0.66272013      -0.70565398
H       -1.56657802      -0.18557901      -1.28236448       1.16138376       1.27539424       0.72365891
H        0.94909235       0.58672318       1.19747433       5.33300718       9.37014951       9.09386893
5
Properties=species:S:1:pos:R:3:forces:R:3 energy=-1086.245749575956 target_index=3 pbc="F F F"
C        0.00000000       0.00000000       0.00000000       0.09443872      -0.73477790      -0.55429101
H       -1.08023801       1.56471519       0.19382609       1.03055209      -2.79605177      -0.11629156
H       -0.72920010      -2.05475822      -1.30242770       0.49295886       1.25899368       0.34198207
H        0.34561183      -0.34949838      -2.28852487      -0.73307326      -0.47226712       2.26080133
H        0.07974078      -1.47187449       0.82723900      -0.88473345       2.74423887      -1.93222500
5
Properties=species:S:1:pos:R:3:forces:R:3 energy=-1088.9988456335902 target_index=4 pbc="F F F"
C        0.00000000       0.00000000       0.00000000     -13.73016084     -12.63452433      -7.49401213
H        0.57588323       0.45631905       0.40184653      14.23921944      11.68468230       9.78744129
H       -0.29379143       0.40077461      -0.92983236      -0.32790579       0.96690440      -2.20237196
H        2.80065112      -0.17896730       1.03447091      -0.59873563       0.41158238      -3.45798617
H        2.55127316       0.07273124      -0.52513029       0.41761985      -0.42875838       3.36667392
5
Properties=species:S:1:pos:R:3:forces:R:3 energy=-1087.087576583752 target_index=5 pbc="F F F"
C        0.00000000       0.00000000       0.00000000      -2.14693998      -1.45874123      -0.29853915
H       -0.26140281       2.16869040       1.72032482      -0.08324516      -0.79216495      -0.83129767
H       -1.18945133      -0.73221894      -0.58793940       2.48145093       2.02492154       1.17731535
H        1.91760284      -0.60642223      -1.14699045       0.62791767       4.17630592       0.00512575
H        2.22052828       0.66705484      -1.17466407      -0.87899474      -3.95028631      -0.05256314
5
Properties=species:S:1:pos:R:3:forces:R:3 energy=-1087.3558784015984 target_index=6 pbc="F F F"
C        0.00000000       0.00000000       0.00000000      -0.79895061      -3.36199296      -0.36110800
H        1.02065032       1.12920105       1.88486558      -2.88938543      -0.96409881       1.75735545
H        0.24755657       0.89755709       2.40143680       2.75086050       0.78678466      -1.87284432
H       -2.80142767      -0.52366587      -0.82355394       1.09289674       0.22541437       0.38608114
H        0.10463450      -1.87740786       0.01359383      -0.15555232       3.31364489       0.09032907
5
Properties=species:S:1:pos:R:3:forces:R:3 energy=-1082.923103403618 target_index=7 pbc="F F F"
C        0.00000000       0.00000000       0.00000000      24.88193806     -13.41383942     -39.88153383
H        2.01456676      -1.53991113      -0.65853075      -2.76020749      -0.07733573      -3.29421146
H        1.01622534      -1.45108597      -1.53917180       3.83637199      -0.33882527       2.77087603
H       -0.37387591       0.14930613       0.58427124     -25.25630627      10.21480870      40.57347868
H        0.14524808      -1.84211069       0.24322222      -0.70206163       3.61569308      -0.16840939
5
Properties=species:S:1:pos:R:3:forces:R:3 energy=-1088.5027556819905 target_index=8 pbc="F F F"
C        0.00000000       0.00000000       0.00000000       1.88499998      -2.41840694       4.89543763
H       -1.50543316       0.49880150      -2.28149982       0.72670412      -3.29556334       1.81475844
H        1.78944524       1.37540926       0.50216093      -1.65479513      -1.32763959      -0.37012486
H       -1.20294043      -0.59154752      -1.55713554      -0.94855546       3.14806217      -1.83619117
H       -0.04007745       0.58999880      -0.80259299      -0.00859212       3.89365260      -4.50370675
5
Properties=species:S:1:pos:R:3:forces:R:3 energy=-1084.896596202102 target_index=9 pbc="F F F"
C        0.00000000       0.00000000       0.00000000       1.00864422       0.79020628       1.17098118
H       -1.63523722       1.62049787       0.71864776       1.52118872      -1.24475593      -0.44264286
H        1.77450518      -0.40213367       1.24034414      -1.51964863       0.59532943      -1.55077751
H        2.10051342       0.86866577      -1.68054832       0.58113077      -1.67977906       2.48976125
H        2.57247260       0.03680146      -0.42823752      -1.59133513       1.53895968      -1.66713334
5
Properties=species:S:1:pos:R:3:forces:R:3 energy=-1087.7490211675888 target_index=0 pbc="F F F"
C        0.00000000       0.00000000       0.00000000       3.23036014       2.92888119      -1.45785728
H        1.11009312       0.66352881      -1.20647303      -2.10089921      -1.57885294       2.36105743
H        1.16343518      -0.99357315       2.24678554       0.10767579       1.44465980      -3.68581892
H        0.89954596       2.26221256       0.66328548      -0.74154145      -1.63032387      -0.35730534
H        1.17776041      -0.54234298       1.16095099      -0.49556853      -1.16436315       3.13991640
5
Properties=species:S:1:pos:R:3:forces:R:3 energy=-1086.3938554326242 target_index=1 pbc="F F F"
C        0.00000000       0.00000000       0.00000000      -1.45688129      -0.04993239      -0.46814616
H       -1.83401146      -2.13793502       0.29419671       3.13332152      -1.15300864      -0.73749299
H       -0.37607822      -2.69332823      -0.06510783      -3.09770041       1.61236008       0.82285879
H        2.11757195       1.83324438       0.88708876      -0.80343359      -0.42749134      -0.15603158
H       -1.26530038       0.18387931      -0.17063378       2.22474159       0.01791700       0.53871989
5
Properties=species:S:1:pos:R:3:forces:R:3 energy=-1087.6028743192574 target_index=2 pbc="F F F"
C        0.00000000       0.00000000       0.00000000       0.31260052      -1.24277926       2.53257734
H        1.99444931      -0.53130477      -0.66877749      -0.49403564      -0.79746760      -3.93913852
H       -2.35844699       1.03685663       0.42292372       1.30283152      -0.76157909      -0.09243326
H        1.99279026      -0.81977796      -1.97176363       0.18794670       0.78290229       3.85471631
H        0.41000952      -0.86627710       1.09472954      -1.30943463       2.01896120      -2.35575478
5
Properties=species:S:1:pos:R:3:forces:R:3 energy=-1087.4061932532993 target_index=3 pbc="F F F"
C        0.00000000       0.00000000       0.00000000       2.62040318      -2.72410456       2.65294102
H        2.57191792       0.28766242       0.88009832      -1.76659394      -0.43541549      -0.53546641
H        0.88351806       0.74378011       0.90635221      -0.88271307      -1.66745525      -1.28226114
H        1.81653990      -1.79186652      -0.53365636      -0.44399680       1.28403263       0.26991350
H       -0.23389602      -1.52228126       0.75367570       0.47300863       3.54341214      -1.10512182
5
Properties=species:S:1:pos:R:3:forces:R:3 energy=-1085.2772190682722 target_index=4 pbc="F F F"
C        0.00000000       0.00000000       0.00000000       1.46397445       1.34066995      -2.41457856
H        0.20250772       0.56422297      -1.76003284      -0.21627204      -0.83090995       3.28050233
H        0.84327328       1.26067880       1.02266774       0.59327718      -2.15777872      -0.52778241
H        2.34240731       0.56554026       1.74411603      -1.65237983       0.66731110      -0.95213700
H        0.58767485      -2.44104149      -1.29577854      -0.18854422       0.98075185       0.61370100
5
Properties=species:S:1:pos:R:3:forces:R:3 energy=-1082.7193620131502 target_index=5 pbc="F F F"
C        0.00000000       0.00000000       0.00000000      -0.42479785       1.38239640       2.37223402
H       -1.20973077       0.23068730       2.67952802       1.34938085       0.64413979      -1.14207991
H        0.21903583       1.18029513       1.89069871      -0.52530181      -1.60821649      -0.33867203
H        2.28436944       0.71936123       1.20812265      -1.65596601       0.13138549      -0.26835130
H       -1.97745500       1.39711861       1.03779045       1.25677687      -0.54983117      -0.62293589
5
Properties=species:S:1:pos:R:3:forces:R:3 energy=-1085.0063519751423 target_index=6 pbc="F F F"
C        0.00000000       0.00000000       0.00000000       4.08562307      -0.49703869      -0.93521605
H        0.75232455      -2.67672964      -1.01446344      -0.16055621       1.14843311       1.81754706
H        1.65245179       0.45521477       0.01744103      -3.51289365      -1.01389184      -0.01126298
H        0.63924872      -0.87413137      -2.64750787      -0.24367744      -0.06620079       1.32088530
H        0.72424320      -2.45278336       0.83773921      -0.16843664       0.42876198      -2.19210039
5
Properties=species:S:1:pos:R:3:forces:R:3 energy=-1085.5516568848795 target_index=7 pbc="F F F"
C        0.00000000       0.00000000       0.00000000      -2.04943187       2.52644937      -1.41836152
H       -2.51095677      -1.48518289       0.28371437       0.12589207       2.55860206       1.41660083
H       -0.45314678       1.49270562      -0.45879848       0.90159115      -3.42896406       0.91142357
H       -1.50223812      -1.64441416      -1.90452149       0.41891414       0.65343382       0.95974439
H       -2.68780133      -0.19038830       1.30782638       0.60292293      -2.30947079      -1.86939132
5
Properties=species:S:1:pos:R:3:forces:R:3 energy=-1082.9771205593252 target_index=8 pbc="F F F"
C        0.00000000       0.00000000       0.00000000      -0.73486635       1.63510201      -1.37240200
H       -0.54405504       1.45630179      -2.38715021      -0.09937061      -1.05621428       1.12903875
H       -0.65699807       1.77905062       1.48965088       0.77416156      -1.27611363      -1.28646541
H        1.30427899       0.05344825      -1.79309927      -1.48131295       0.55653815       1.50308455
H       -2.39367554       0.42066401      -1.24500175       1.54144234       0.14082195       0.02678268
5
Properties=species:S:1:pos:R:3:forces:R:3 energy=-1086.7037725411224 target_index=9 pbc="F F F"
C        0.00000000       0.00000000       0.00000000       4.06025142      -2.47218570      -3.84121801
H       -0.54281651      -2.43581359      -0.97054775       0.06660291       1.45043810       0.55402156
H       -0.50530083       0.46496172       0.80461750      -1.33941473       1.13931031       1.83070289
H        0.56453871       1.25621550      -1.75488843      -0.76030845      -1.39398334       2.16521693
H        1.92200027      -1.00808346       0.76833744      -2.02690026       1.27632343      -0.70859892
5
Properties=species:S:1:pos:R:3:forces:R:3 energy=-1085.5483640853893 target_index=0 pbc="F F F"
C        0.00000000       0.00000000       0.00000000      -0.18755435      25.91357824     -13.26766803
H       -0.01254978      -0.75966175       0.29877931      -1.17420534     -22.63334639       9.01163062
H        2.11666291       0.31107492      -0.87953814      -2.43443058      -0.29048336       0.98305351
H       -1.24005165       1.56252985      -0.29187300       2.18046718      -2.73929567       1.00329427
H       -1.08770594      -0.12558410      -1.79427936       1.61584547      -0.25080146       2.26983516
5
Properties=species:S:1:pos:R:3:forces:R:3 energy=-1087.1848153776712 target_index=1 pbc="F F F"
C        0.00000000       0.00000000       0.00000000       0.57503725       0.69634452       0.15891739
H       -2.85959993       0.62540719       0.59491030       0.28801922      -2.46118086      -2.14470877
H        0.97043701      -0.63755393      -1.71654327      -0.87610534       1.42726525       1.98284233
H       -2.70792311      -0.68530181      -0.50196041      -0.06731922       2.60728797       2.15669423
H        0.21194079       1.20717842       0.64352827       0.08027862      -2.26969272      -2.15383105
5
Properties=species:S:1:pos:R:3:forces:R:3 energy=-1085.1945543824602 target_index=2 pbc="F F F"
C        0.00000000       0.00000000       0.00000000       1.81885884       1.46313370      -1.78416693
H        1.21025620       1.65063519      -1.56407664      -2.42463158      -0.81704964       1.49604538
H       -0.47810021       1.56012681      -2.35558575       0.62478040      -0.23772173       0.25924548
H        0.53959415       1.51234295      -0.80964865       1.15483001      -0.69929049      -0.32549358
H        2.62851804      -0.67528787      -0.90046646      -1.17381505       0.29076516       0.35439279
5
Properties=species:S:1:pos:R:3:forces:R:3 energy=-1086.3690939473215 target_index=3 pbc="F F F"
C        0.00000000       0.00000000       0.00000000       0.85389974      -0.62061007       0.14593280
H        0.16241453       1.64876188       0.72232106       2.34947717      -1.52552772      -1.99199957
H        1.05974382      -1.36303511      -0.69811958      -1.22585420       2.48414236       1.43229176
H       -0.53293409      -0.73818298       2.70949192       0.37569953       0.35943113      -1.12870605
H        1.30645321       1.69351956      -0.10207302      -2.35316825      -0.69740896       1.54246770
5
Properties=species:S:1:pos:R:3:forces:R:3 energy=-1089.987080848048 target_index=4 pbc="F F F"
C        0.00000000       0.00000000       0.00000000       0.15825610       1.69326194      -5.72830676
H       -0.89425208      -0.10505124      -1.28482176      -0.28102530       0.16960958       1.17504198
H        0.48124342       0.87950437      -1.36038601       0.76554785      -0.84789055       2.03548363
H        1.28999419      -0.27618594      -1.47405610      -2.30025184       0.87417289       1.39872908
H       -1.21519454       0.92047550      -1.40976337       1.65759249      -1.88929938       1.11888495
5
Properties=species:S:1:pos:R:3:forces:R:3 energy=-1087.5828081054747 target_index=5 pbc="F F F"
C        0.00000000       0.00000000       0.00000000      -0.21732259      -0.46399485       1.87260932
H       -1.54301910       1.32168078       1.79082259       2.66185246      -0.73408782      -0.17475899
H       -1.41923583      -0.02615248      -1.17403188       1.97721161      -0.51397558       2.38652730
H        0.11669264       1.03883063       1.83452043      -2.71093022       0.06270358      -1.41895596
H        0.44159130      -1.13831095       1.12938836      -1.71088171       1.64911659      -2.66512754
5
Properties=species:S:1:pos:R:3:forces:R:3 energy=-1085.3166339808051 target_index=6 pbc="F F F"
C        0.00000000       0.00000000       0.00000000      -0.65987238      -0.30138948      -0.80965669
H        2.24063661       0.45368711       0.77582875      -1.61946970      -0.62890548      -0.58384482
H       -2.27986510      -1.30032306       0.05887936       0.56358195       3.11843071       0.39115855
H       -1.06183961      -1.22065234      -1.42963868       1.05893399       0.82641103       1.73337116
H       -2.21117845       0.04504652       0.47652941       0.65694646      -3.01452724      -0.73101226
5
Properties=species:S:1:pos:R:3:forces:R:3 energy=-1086.7138715550834 target_index=7 pbc="F F F"
C        0.00000000       0.00000000       0.00000000       1.35879829      -1.58667115       2.53483374
H        1.60820275      -1.25401440       0.07180807      -0.48703812      -2.69162482       1.47596763
H       -0.26891987       2.22172999       1.62642576       0.07589951      -1.16106494      -0.72827918
H        1.43377407      -2.43133778       0.90941621       0.90566378       2.49620187      -1.90959877
H        0.34416607      -1.07814441       0.83786358      -1.85344276       2.94318938      -1.37303346
5
Properties=species:S:1:pos:R:3:forces:R:3 energy=-1084.2570458461087 target_index=8 pbc="F F F"
C        0.00000000       0.00000000       0.00000000      -0.46546090      -0.22138751      -2.68254008
H       -1.16307934      -0.85931173      -1.37815099       1.67809036       1.36098321       1.12087395
H        2.73348600      -0.32463193       0.24974948      -1.16783466       0.03817164      -0.02926894
H       -0.12148390       0.34540703      -1.77045764      -0.13439934      -1.35317940       2.45513208
H        0.53510563      -1.23731399       2.47523446       0.08968629       0.17534469      -0.86434356
5
Properties=species:S:1:pos:R:3:forces:R:3 energy=-1088.0478417422673 target_index=9 pbc="F F F"
C        0.00000000       0.00000000       0.00000000      -1.15169327       2.23410144      -1.35980513
H       -0.06706075      -1.53569784       0.47446464      -0.11392923       4.46771026      -1.10198302
H        1.07448216       1.18253587      -0.46634133      -1.17263440      -3.11614243       2.17598163
H       -0.99431303       1.39666745      -0.17768953       1.13687188      -4.04112754       0.43960690
H       -1.62372625      -0.57246107       1.48618671       1.30122664       0.45519242      -0.15385745
5
Properties=species:S:1:pos:R:3:forces:R:3 energy=-1087.4348086803993 target_index=0 pbc="F F F"
C        0.00000000       0.00000000       0.00000000       1.86409690      -1.02553689       2.08624443
H        0.54108295      -0.58936501      -1.02139241       0.84247992      -0.02233056      -1.13980911
H        0.87077515      -0.90568553       1.69473278      -1.17214229       1.00402549      -2.40482277
H        0.40777177      -1.34611784      -1.38746389      -0.61166880      -0.22851667       0.83136298
H        2.55403472      -0.08248802      -1.33068464      -0.92259450       0.27234371       0.62692111
5
Properties=species:S:1:pos:R:3:forces:R:3 energy=-1090.2197696599553 target_index=1 pbc="F F F"
C        0.00000000       0.00000000       0.00000000      -0.48554739       5.52998668      -9.68536022
H        0.78309865       2.27986236       0.77955686      -1.07542248      -0.94916481       4.35833239
H        0.52987729       2.07092912       1.89753793       0.99559638       0.96505269      -4.20916566
H       -0.16698327      -0.66454131       0.62434872      -1.49077564      -7.80886442       8.47932512
H       -1.17524444      -1.06436562      -0.77600579       2.05612291       2.26321097       1.05700515
5
Properties=species:S:1:pos:R:3:forces:R:3 energy=-1084.4447883726739 target_index=2 pbc="F F F"
C        0.00000000       0.00000000       0.00000000      -7.91461548      12.96470915       0.54678287
H        0.42933963      -0.78413255       0.10434662       9.03944996     -12.83072582       0.34884898
H        0.08193948      -1.83147271       0.74541627      -0.61543855       1.29196140       0.32910341
H        0.30713396       1.16865177       2.18533481       0.04390006      -0.63500826      -1.66598406
H        1.86695350       2.10527694       0.16522374      -0.55325588      -0.79088557       0.44132183
5
Properties=species:S:1:pos:R:3:forces:R:3 energy=-1083.1779609003956 target_index=3 pbc="F F F"
C        0.00000000       0.00000000       0.00000000     -18.57568408      11.92145324     -10.47708860
H        0.11456914      -1.43774557       0.85097754      -1.75514070       0.85993772      -0.58488766
H       -2.08786554       0.09324909      -1.98771589       0.86034241      -0.43518769       0.41687577
H        0.57204223      -0.45317030       0.39264479      18.21906522     -11.18890191      10.37237215
H       -1.70694410       1.78608398       0.46394964       1.25123768      -1.15738312       0.27275046
5
Properties=species:S:1:pos:R:3:forces:R:3 energy=-1084.3258530730793 target_index=4 pbc="F F F"
C        0.00000000       0.00000000       0.00000000      -0.65734344      -3.27300962       0.25425445
H       -2.21146885      -0.19870641       1.26442267       1.59754949       1.29907771       0.27599108
H       -1.02275120       1.22392257       1.96528371      -0.80452374      -1.86616047      -1.37991528
H        0.14506126      -1.81271897       0.34172918      -0.34301720       3.33042700      -0.38947499
H       -0.75425350      -0.89314680      -2.46682586       0.20744235       0.50972914       1.23907173
5
Properties=species:S:1:pos:R:3:forces:R:3 energy=-1086.2308560061758 target_index=5 pbc="F F F"
C        0.00000000       0.00000000       0.00000000      -0.50347570      -0.60747944      -1.12027077
H       -1.66383334      -1.18856941       1.07717517       1.10224630       0.99442344      -1.87540976
H       -2.13935289      -1.08961492      -1.14137885       0.92925160       0.35407500       1.10179224
H        1.35089362      -1.12435859      -0.49121736      -2.65365013       2.01951245       0.34577239
H       -0.65795333       1.30715422      -1.08256276       1.12552971      -2.76043889       1.54811384
5
Properties=species:S:1:pos:R:3:forces:R:3 energy=-1087.238991069939 target_index=6 pbc="F F F"
C        0.00000000       0.00000000       0.00000000      -1.68457417      -2.40904298      -0.66237561
H        1.35388670       0.21343476       2.53184271      -0.71427335       1.49288601      -2.70624515
H        1.09003193       0.89056135       1.29415702       0.64560172      -1.62186545       3.41893933
H       -2.01040388       0.03997205      -1.90829699       0.75108385       0.26955406       0.79744651
H        0.69164630       0.82598061       0.27870900       1.00219178       2.26828581      -0.84795432
5
Properties=species:S:1:pos:R:3:forces:R:3 energy=-1088.5219674346806 target_index=7 pbc="F F F"
C        0.00000000       0.00000000       0.00000000      -3.32568794       4.90433570      -2.16669428
H       -1.13253293       1.24648599       0.22417780       1.12538058      -2.51377228      -0.04713914
H       -2.20479269      -1.32734263      -0.76491355       0.42617185       2.56262275       0.51618776
H       -2.25406951       0.28893090      -0.36849073       1.38571004      -2.01454559      -0.03111705
H        0.00245953       1.27028523      -1.09719383       0.38816116      -2.93869304       1.72864136
5
Properties=species:S:1:pos:R:3:forces:R:3 energy=-1083.7115663104787 target_index=8 pbc="F F F"
C        0.00000000       0.00000000       0.00000000       0.68795655      -0.90376990       1.81311808
H       -0.77851926       0.27120175       2.26145448       0.60712566       0.21602727      -1.70048211
H        0.63001314       2.31757670       0.46682405      -0.29209750      -1.25430398      -0.34431972
H        1.25526573      -1.27424534       0.66955902      -1.50130329       2.34119102      -1.22814042
H       -0.24333585       1.35829434      -2.04955937       0.49833607      -0.39909298       1.45976401
5
Properties=species:S:1:pos:R:3:forces:R:3 energy=-1088.4320186320374 target_index=9 pbc="F F F"
C        0.00000000       0.00000000       0.00000000       2.48351398      -0.00394202       2.82757814
H       -2.74408628      -0.88276173      -0.15962935       1.51063331       1.15964826      -2.47189465
H       -1.85591007      -0.21261816      -1.51847170      -1.51015303      -1.36903900       2.53268584
H        0.58687594      -0.07286701       1.25886898      -2.71541885       0.86781455      -0.07902341
H        1.17007458      -0.35950304       0.49957416       0.23153154      -0.65445043      -2.80926005
5
Properties=species:S:1:pos:R:3:forces:R:3 energy=-1085.726747595923 target_index=0 pbc="F F F"
C        0.00000000       0.00000000       0.00000000      -1.26354916       1.83554736       2.86997770
H        2.05134600       0.58556603      -0.98196529      -0.61948959      -0.71421832       0.83253746
H       -0.38419909       0.66717055       1.45514095       1.42072128      -0.28135903      -1.62775225
H        1.05502774       1.53723982       1.77279719      -1.56342168      -1.37148515      -1.09504772
H       -1.25808832      -0.81689975       1.23742594       2.02567333       0.53176556      -0.97985094
5
Properties=species:S:1:pos:R:3:forces:R:3 energy=-1083.7726364513344 target_index=1 pbc="F F F"
C        0.00000000       0.00000000       0.00000000       0.59963192       0.48828202      -1.01325164
H        1.90566631      -0.37003298      -0.77007302      -2.34629106       0.81194548       0.26466279
H       -0.05044963       2.98125681       0.10663119       0.28284307      -1.28345259      -0.57175086
H        0.87970310       1.44189636      -1.54388067      -0.51294199      -0.77474058       1.29772016
H       -2.04452121      -0.80463468      -0.50606543       1.97674007       0.75776100       0.02258355
5
Properties=species:S:1:pos:R:3:forces:R:3 energy=-1088.2429593381744 target_index=2 pbc="F F F"
C        0.00000000       0.00000000       0.00000000      -1.83716202      -0.13610192       0.44798716
H       -1.23023517       0.54387930       1.13537078       2.06288852      -1.70938225      -1.95224053
H       -0.18863875      -1.85187065      -1.11457837       0.62525194       1.46713383       2.10081539
H       -1.37934107      -0.87651165      -0.90279357      -1.76391897      -1.34818220      -2.58873694
H       -1.92058880      -1.24928733      -1.62911353       0.91305930       1.72667395       1.99207002
5
Properties=species:S:1:pos:R:3:forces:R:3 energy=-1086.2920623312434 target_index=3 pbc="F F F"
C        0.00000000       0.00000000       0.00000000      -2.94756180       2.40858018       2.22937009
H       -0.11162499       2.04300023      -0.04536080       0.73079783      -2.64770008       0.25897500
H       -1.13546626      -0.04345551       1.08163044       2.83371947       0.11290079      -2.03954495
H        1.42376498       1.45274021      -2.15161256       0.78914236       0.21173918       1.32970162
H        1.49540807       1.54701796      -0.13262296      -1.40588241      -0.08521822      -1.77856449
5
Properties=species:S:1:pos:R:3:forces:R:3 energy=-1084.3768599703985 target_index=4 pbc="F F F"
C        0.00000000       0.00000000       0.00000000      -0.90423682      -2.70849435      -0.88425728
H        0.97364099      -1.16853349       2.48075265      -1.34990432      -0.17810451      -1.53321223
H       -0.51582617      -1.83057771       1.19251708       1.10164261       1.28081618       0.08034341
H       -1.97163913       1.93737030      -0.52937961       0.65019731      -0.89124091       0.31529452
H       -0.33511210      -1.46221376      -0.90432673       0.50213976       2.49684259       2.02162075
5
Properties=species:S:1:pos:R:3:forces:R:3 energy=-1086.0571890629546 target_index=5 pbc="F F F"
C        0.00000000       0.00000000       0.00000000       0.43643004       1.64414819       0.44081789
H        0.62816171       0.58529674       2.73578625      -0.35252051      -0.22218301      -1.25305134
H       -2.24638658       0.33274139       0.00165413      -0.77815860       0.44166841       2.36316625
H       -1.96161407       0.20963990      -0.64687654       1.22908453      -0.41366857      -2.22265694
H        0.77835204       2.32134383      -1.02481370      -0.53474547      -1.45002004       0.67176991
5
Properties=species:S:1:pos:R:3:forces:R:3 energy=-1087.9056855262409 target_index=6 pbc="F F F"
C        0.00000000       0.00000000       0.00000000      -0.01422283       1.96068301      -0.57465621
H       -0.32236725      -0.72707128       2.26491275       2.34687727       2.33132004       0.03057814
H        1.82621158       1.28014942      -0.58005354      -1.89887212      -1.14184902       0.67030026
H       -0.92885953       0.83076943      -0.31334175       1.87324027      -1.20088260       0.77250063
H        0.84908678       0.34489377       2.64243020      -2.30710949      -1.94944214      -0.89876036
5
Properties=species:S:1:pos:R:3:forces:R:3 energy=-1086.1638633463783 target_index=7 pbc="F F F"
C        0.00000000       0.00000000       0.00000000       1.41421433       0.76794258      -1.27647513
H        2.05373795      -0.17058197       0.00572424      -0.03215474       0.39517256      -0.20621285
H        2.08569083       0.75272957       0.06581647      -1.19371231      -1.21194247       0.01935630
H       -0.87228076       1.28900692      -2.11259133       0.64085752      -0.88607814       1.31092484
H        2.38694135      -1.63425032      -0.32501100      -0.82917960       0.93478205       0.15232405
5
Properties=species:S:1:pos:R:3:forces:R:3 energy=-1087.3184669278337 target_index=8 pbc="F F F"